% Model:              ElectrodesShort.mph
% Version:            COMSOL 5.5.0.292
% Date:               Mar 27 2026, 14:51
% Dimension:          3
% Nodes:              78
% Expressions:        5
% Description:        Electric potential, Electric field, x component, Electric field, y component, Electric field, z component, Electric field norm
% Length unit:        mm
% x                       y                        z                        V (V) @ TT1=0.0087266    es.Ex (V/m) @ TT1=0.0087266 es.Ey (V/m) @ TT1=0.0087266 es.Ez (V/m) @ TT1=0.0087266 es.normE (V/m) @ TT1=0.0087266
0                         0                        64.25                    0.0016627859316721823    2.3146815395677365       0.008156858959248225     -41.052251997879274      41.117456283935496
0                         0                        64.5                     0.012028218643301608     2.3070752289010095       0.014512947484750072     -41.77139649994188       41.83506151893182
0                         0                        69                       0.211054008044145        1.2471010928372834       0.3590200407352313       -42.565600327964546      42.58537880312234
0                         0                        69.25                    0.22161621455082378      1.1895902755217662       0.37685647795808563      -41.92249128643441       41.94105889805077
0                         0                        64.75                    0.02256542411446084      2.2550346166593958       0.02645690632731507      -42.452718286678035      42.512576621727746
0                         0                        68.75                    0.200340099816684        1.324395061690666        0.33364620659614275      -43.12043404217705       43.14205806468148
0                         0                        63.793291184036235       -0.01677232608035887     2.368047367428616        -0.011898231915539625    -39.61397151009888       39.68468884475767
0                         0                        63.63582583212009        -0.02296841230657759     2.4062530854491033       -0.013342024756722637    -39.08380105790429       39.157805569958825
0                         0                        63.6546181043899         -0.022233344365835024    2.4016935284001093       -0.01316971924416066     -39.14707280223289       39.22067840093012
0                         0                        63.14013840259773        -0.04190310197593432     2.4332705424443075       -0.04128966945479817     -37.24372756351458       37.323153044656166
0                         0                        63.471321949014076       -0.029350645542614042    2.426929649667836        -0.010821636375421662    -38.514229688601475      38.59062053321509
0                         0                        62.83244759408602        -0.053183826718040395    2.4894145732033777       -0.012402602096969417    -36.08134052461251       36.16711866868663
0                         0                        62.988529552717374       -0.04750616412347956     2.460934456008044        -0.02705611116385853     -36.670983246139         36.75347524613865
0                         0                        62                       -0.08183904952133857     2.672039719967099        -0.01182579591734001     -32.69437898997123       32.80338936229613
0                         0                        62.601625966338936       -0.061413254115286454    2.5537981309048234       -0.010029955233171961    -35.20759515635458       35.30009549827277
0                         0                        69.69027406546914        0.23980057318518394      1.1029439003378627       0.41521030372538803      -40.71643226880542       40.73348427944547
0                         0                        69.86813293717378        0.2469855474306568       1.069313094498422        0.4433025589230297       -40.117531250645015      40.134228051618145
0                         0                        70.01330185994516        0.2527739642803323       1.031232444265811        0.446941744462265        -39.63743699029388       39.6533681852698
0                         0                        70.06979976500834        0.2550078338237677       1.0194837673693087       0.455535651564702        -39.44780707409326       39.4636078284368
0                         0                        70.22535161865142        0.26110496663417093      0.9649969735208117       0.4774840034539096       -38.94576609917911       38.960645620734105
0                         0                        70.41398215308216        0.26839054998022294      0.9116515937317686       0.4990839154947935       -38.29233326523907       38.30643523325023
0                         0                        70.6209790559475         0.27624170500383893      0.851510108566373        0.5361801523083827       -37.55718406136543       37.570661868537826
0                         0                        70.85042557708503        0.2847683805112865       0.8026423040784039       0.5458445697164223       -36.76667550447341       36.779486247279614
0                         0                        71.3437695960251         0.30244627304663985      0.686288819230576        0.5953756217389756       -34.86914384277816       34.88097843815044
0                         0                        71.63805300883726        0.3125321998342088       0.6259504856201712       0.573737287642732        -33.70060151722499       33.71129678770111
0                         0                        72.00000000000001        0.3244759195739979       0.564842529664368        0.6199242041821051       -32.28274486090739       32.29363666199103
0                         0                        65.03249789673897        0.034662295104330054     2.1822507121436274       0.04241037281207127      -43.1753890941873        43.23052440400002
0                         0                        65.25                    0.044100075411398675     2.1453424628070024       0.05882070610571231      -43.604672911748736      43.65745587982405
0                         0                        68.25                    0.17851514287204004      1.4706257076145448       0.27968823177820923      -44.10750559457483       44.132901731637155
0                         0                        68.48544107570018        0.1888528676984633       1.415531391190541        0.3072472054081601       -43.707250107816094      43.73124560256507
0                         0                        65.5900065516046         0.059039407597740526     2.0802414852629028       0.07347787346336077      -44.234160008896964      44.283108690872155
0                         0                        65.75                    0.06613675801317194      2.0463580475203003       0.08775840569788329      -44.477439792343404      44.524576733282416
0                         0                        65.53122125310787        0.05644182191393522      2.0905780502498317       0.06849928990274279      -44.140954768850484      44.19048649474916
0                         0                        65.5791845139682         0.05856079961638239      2.082796698716791        0.07271277407434695      -44.21646221925684       44.26554936316352
0                         0                        65.52862418286888        0.05632719012985102      2.0901404877484033       0.06862036396852389      -44.1459829992873        44.195488581825174
0                         0                        67.75                    0.156272120500393        1.5987815157938599       0.23588603587336365      -44.80460999058755       44.83374645248623
0                         0                        67.85585985991392        0.16100918915081497      1.5748991870660802       0.24845350410203082      -44.6892857683024        44.717717954677845
0                         0                        67.87968817037817        0.16207370442586097      1.5690415487003975       0.25014056848556265      -44.65853159972926       44.68678670848428
0                         0                        67.9271036004979         0.164189721037341        1.5568029343638727       0.25362267864485943      -44.59581476544108       44.623700590976306
0                         0                        67.99801785102783        0.16734884865569097      1.5375999391039246       0.26084167598243635      -44.50135298484763       44.52867244186232
0                         0                        68.02238403632089        0.1684327843418492       1.5314381716207777       0.26375196702336723      -44.46913403405165       44.496277930991674
0                         0                        67.96402479847448        0.1658353478587079       1.5461779556629835       0.2567581242656729       -44.54628759028995       44.573852526809645
0                         0                        66.31581789039043        0.09149530523961592      1.9391431922324784       0.11607360985863124      -45.0857175084991        45.12754893254308
0                         0                        66.54074822221668        0.10165253109007778      1.8841925792904486       0.13950145091641275      -45.215554291854346      45.25501068666639
0                         0                        66.28166689211558        0.0899559536671447       1.9480583073178792       0.11470801287134691      -45.06400872104882       45.106240933020466
0                         0                        66.22259752085938        0.0872949322693565       1.9409433211787928       0.12855034334614857      -45.031531468717446      45.07352451922184
0                         0                        66.20445439291339        0.0864783587803076       1.9580947023167141       0.10958909292537555      -44.99993437300475       45.04264910290316
0                         0                        66.17807875077825        0.08529187803491159      1.9610323851770772       0.10942191016076208      -44.97214674526539       45.01501531764508
0                         0                        66.17543014638048        0.08517276775036406      1.9604684654477182       0.10517902556637182      -44.98016078662732       45.02298705797162
0                         0                        66.5545787740612         0.10227793512498365      1.880190636720978        0.13840748031918793      -45.21969432311113       45.258977320931926
0                         0                        66.59259389794204        0.10399717550008504      1.8771286710020973       0.13840597521954123      -45.2430528578476        45.282188553110664
0                         0                        66.59413760181216        0.1040670176658049       1.876754224968991        0.1384670950023974       -45.24342848189599       45.28254851875913
0                         0                        66.60201094673964        0.10442324232579547      1.8748444397838426       0.138778823918301        -45.24534427530034       45.28438450311332
0                         0                        66.81404900121441        0.11402265693499082      1.8253951041824088       0.1699664114105417       -45.29869345654939       45.33577599134939
0                         0                        66.8194001541784         0.11426500078264629      1.8247837708563566       0.15967756428000257      -45.277058345376275      45.31409653899681
0                         0                        66.79237712219805        0.11304100796708641      1.830474821486753        0.16731059119405245      -45.293263721052156      45.33054565533932
0                         0                        66.82849431359998        0.11467675703087184      1.8195725965241571       0.1461438248194895       -45.29708852160924       45.333855240714506
0                         0                        67.03790780024401        0.12416030046018313      1.762685918305415        0.1750948490847577       -45.275334308361465      45.309972595298056
0                         0                        67.09468782017824        0.12673086738908457      1.7601536156774102       0.18963594476815615      -45.257784447711515      45.2923962234043
0                         0                        67.09907059384635        0.12692922034526158      1.7587749685226726       0.19030556751454242      -45.25702247446549       45.29158408416737
0                         0                        67.14100454131878        0.12882648747750097      1.7424022110553579       0.18559322239110543      -45.24713302167481       45.28104964541374
0                         0                        66.07951135466386        0.08086321806431622      1.9796716770539717       0.10393314553603616      -44.88014309575027       44.92390395260291
0                         0                        66.15949648494716        0.08445622850548017      1.9604209880207577       0.10685612475558415      -44.961816989537255      45.00466259936087
0                         0                        66.17382812807128        0.0851007100870946       1.9569716718273469       0.10737986079109874      -44.97645122335274       45.01913407880549
0                         0                        65.96864039880491        0.07589355755365543      2.002099105101344        0.09565714363645572      -44.76083208545852       44.80568758649273
0                         0                        65.96771232869258        0.0758520168511551       2.002334613241687        0.09559302822507298      -44.759780525001055      44.80464746626955
0                         0                        65.93139359838851        0.07422714573624103      2.0107229916044247       0.09273334976752068      -44.725517991264944      44.77078920468222
0                         0                        67.33742476404225        0.13770607128904447      1.7001738200697218       0.19884257519716186      -45.154119408099746      45.18655362947136
0                         0                        67.3978788967498         0.14043482202073718      1.6853621007800328       0.2071299055272391       -45.124166107047664      45.15610385169361
0                         0                        67.3278904751468         0.13727553233819212      1.7029443167565432       0.19794040526861778      -45.159684919289816      45.19221549956965
0                         0                        67.21984609668398        0.13239283833276078      1.7294953965480602       0.19196416487034185      -45.21823858440359       45.25170831298329
0                         0                        67.17020495468815        0.13014754485205762      1.7341572088387784       0.18834623507791548      -45.23496788875707       45.26858839665888
0                         0                        67.43613277788938        0.14216041974179253      1.6752981717487554       0.21119988346244511      -45.094011481724         45.1256146868815
0                         0                        67.48542268509908        0.14438214182687503      1.6623308567117152       0.216444026770648        -45.055157419341256      45.08633276255147
0                         0                        67.54523069528763        0.14707540154921336      1.6491731577267572       0.22010974156084195      -45.00696601604761       45.03770876023958
0                         0                        67.56971177080956        0.14817697931012247      1.6441670728020767       0.2229759868793053       -44.9882712141372        45.01885772085712
0                         0                        67.5747026558242         0.14840149943415723      1.642923404777349        0.22348161784262288      -44.98379721717262       45.01434386307531
0                         0                        67.58579704305832        0.14890051193078976      1.639180134181288        0.22107403640098156      -44.979502960029464      45.009904152010414
