% Model:              ElectrodesShort.mph
% Version:            COMSOL 5.5.0.292
% Date:               Mar 27 2026, 14:51
% Dimension:          3
% Nodes:              78
% Expressions:        5
% Description:        Electric potential, Electric field, x component, Electric field, y component, Electric field, z component, Electric field norm
% Length unit:        mm
% x                       y                        z                        V (V) @ TT1=0.017453     es.Ex (V/m) @ TT1=0.017453 es.Ey (V/m) @ TT1=0.017453 es.Ez (V/m) @ TT1=0.017453 es.normE (V/m) @ TT1=0.017453
0                         0                        64.25                    0.015217357401623471     2.9905109026865793       -0.20793461157473025     -39.93564213841424       40.0479950218393
0                         0                        64.5                     0.025298348168837467     2.9556931558940676       -0.13523069674169363     -40.622289179253215      40.729900411565126
0                         0                        69                       0.21882730501750924      1.1312535772692627       1.17932363385205         -41.416507589237256      41.448735080564205
0                         0                        69.25                    0.22910772441121535      1.0378318040849877       1.2732597507367132       -40.76218475383366       40.795269225145276
0                         0                        64.75                    0.0355448405884678       2.8630850002048733       -0.04274681585837712     -41.27808673707985       41.37728274890163
0                         0                        68.75                    0.20840155602159238      1.2429641283914634       1.1196136011301405       -41.958315780690086      41.991651046278356
0                         0                        62                       -0.06620215531924423     3.4939807965852525       -0.9963022582787904      -32.04002390717494       32.245366364318144
0                         0                        62.06275515937471        -0.06418354737798299     3.486514226654796        -0.9770019773882392      -32.29278829104494       32.495145636336765
0                         0                        63.11464000192289        -0.028127984602842618    3.3095918129847135       -0.6091106445756473      -36.26143090334506       36.41724570727417
0                         0                        63.186986941714316       -0.02549434437466476     3.2849844284537113       -0.5870996858251711      -36.527840539014605      36.679952878649644
0                         0                        62.791907722222          -0.039631463003489714    3.3714071348120953       -0.7037034955873445      -35.03292833725924       35.20181319991777
0                         0                        63.22825367316075        -0.023984028531397437    3.2752333520967025       -0.5763226533203181      -36.67190412150417       36.822382503148965
0                         0                        63.52201621017001        -0.013066092719686213    3.1857594364809323       -0.4897423898905373      -37.65980558433148       37.797484935445475
0                         0                        63.82016588941757        -0.0016847156533086618   3.1143441713437556       -0.3609257395234278      -38.679098883666164      38.805954407274385
0                         0                        71.23748332691963        0.30415862623586554      0.3593975451493705       1.5785340130645977       -34.36422963198141       34.402343153125635
0                         0                        71.3454975488873         0.30784817556147887      0.32618312574983177      1.5798646429796293       -33.96835338709707       34.006637580807215
0                         0                        70.8967744978133         0.2922428475340868       0.42882377193101817      1.5220682112311597       -35.611000748764816      35.64609313509044
0                         0                        71.04706419672472        0.2975525512621445       0.4097672616841379       1.5453055833792604       -35.04858226347712       35.08502525628982
0                         0                        72.00000000000001        0.32927273240556065      0.16946190410811068      1.6417586515408402       -31.499871545165917      31.54308158961021
0                         0                        70.5316547994809         0.2790111278118038       0.5306897897459599       1.4375263969855254       -36.857452926854194      36.889293162789706
0                         0                        70.70143733212781        0.2852200845937871       0.4827340508811844       1.478226300330391        -36.282659724152104      36.31596868895938
0                         0                        70.04905154049817        0.26081410469288285      0.7442773359573209       1.3931097462790234       -38.51746079532472       38.54983125303371
0                         0                        70.12828077067348        0.2638542140579795       0.7135249906666594       1.4023895768555121       -38.24263363319321       38.274989766689934
0                         0                        69.96860745225425        0.2577061891214279       0.7745880539589791       1.3577073747289177       -38.74339424683839       38.77491397456195
0                         0                        70.0091503246493         0.25927489518021246      0.757388357264773        1.3817175163943247       -38.63354725917523       38.665666349434055
0                         0                        69.76275555754545        0.2496670059718253       0.8565078072815786       1.3370132810240039       -39.40698873874679       39.438965143539015
0                         0                        65.03249789673897        0.04730597546714548      2.7419667396135594       0.06429285145264885      -41.97434360927618       42.063856653919395
0                         0                        65.25                    0.056480620714131714     2.6714508952550617       0.13626883105442816      -42.388420523676785      42.472737297849534
0                         0                        68.48544107570018        0.19722470259659436      1.3766520938456779       1.055758747090998        -42.523882714362344      42.55925749615932
0                         0                        68.25                    0.1871674609292219       1.466447340263585        0.9965387054469375       -42.9080895242937        42.94470518955769
0                         0                        65.52862418286888        0.06836594137973458      2.565188451484822        0.22658893915329692      -42.910285220985855      42.98748785501817
0                         0                        65.53122125310787        0.06847736632874543      2.565096463795875        0.2271686092454246       -42.90609241986342       42.98330015468177
0                         0                        65.5791845139682         0.07053705148078258      2.548406778355144        0.24333465802075693      -42.97985924781025       43.0560319795652
0                         0                        65.5900065516046         0.07100226365798216      2.544903616527563        0.2472623219445751       -42.9960765246102        43.07203581888608
0                         0                        65.75                    0.07790092038271712      2.482230590668678        0.3026238513662065       -43.23239660331072       43.304655245904215
0                         0                        68.02238403632089        0.17735965664461098      1.5659625089278109       0.9441117966648704       -43.25559779379276       43.29422970977008
0                         0                        67.99801785102783        0.17630530721127208      1.5761358815498898       0.937423823308126        -43.28642104566074       43.325249158935435
0                         0                        67.96402479847448        0.17483313875394854      1.590312614317213        0.9280728400228213       -43.329410157781496      43.368516207369865
0                         0                        67.9271036004979         0.17323247663308775      1.6072124879625562       0.9194863080053324       -43.37703922346506       43.416541995489446
0                         0                        67.87968817037817        0.17117432332153226      1.6276346439382223       0.9081027901243601       -43.436612212716454      43.476581348232614
0                         0                        67.85585985991392        0.17013894379121666      1.6376297368293535       0.902495385345901        -43.46576644775257       43.505967199524385
0                         0                        67.75                    0.16553163627837236      1.679002942867271        0.8723676403803893       -43.57581558592233       43.6168749472088
0                         0                        65.96771232869258        0.08734414560460306      2.399265578976701        0.364882171611683        -43.50656912051626       43.57420304441473
0                         0                        65.96864039880491        0.08738452322597029      2.398860548256031        0.3651666078044342       -43.507592484506596      43.575204903469235
0                         0                        65.93139359838851        0.08576476949912433      2.414306892894068        0.3534085528477888       -43.47325270620027       43.541675165701314
0                         0                        66.07951135466386        0.09221507724836384      2.3566886126090196       0.3999475789445768       -43.624367618195166      43.68980875868124
0                         0                        66.15949648494716        0.09570758071140442      2.3233600318233414       0.4222662157701613       -43.704450892718654      43.76820008212025
0                         0                        66.17382812807128        0.09633404012854563      2.317388255270032        0.4262652433002643       -43.71880012121443       43.782250677894666
0                         0                        66.17543014638048        0.09640408262577359      2.3201684681848818       0.4247048269736524       -43.722248813848125      43.785826442478594
0                         0                        66.17807875077825        0.09651986007519495      2.320269448649867        0.42975360393432993      -43.713801851057525      43.777446370796376
0                         0                        66.20445439291339        0.09767314891540374      2.312283614315618        0.43624491972576607      -43.7414426792821        43.80468893632211
0                         0                        66.22259752085938        0.09846688925315814      2.2923289579060793       0.45900237476649863      -43.772438764558615      43.83482463325626
0                         0                        66.31581789039043        0.10254985586763277      2.27367119222086         0.4677532526099526       -43.82590475801385       43.88733646114974
0                         0                        66.54074822221668        0.11242350897081826      2.177992149686584        0.5416335968881185       -43.95444159305251       44.01170244962627
0                         0                        66.28166689211558        0.10105352348678201      2.2887482319347185       0.45864381394579823      -43.804469546635744      43.86661914120341
0                         0                        66.5545787740612         0.11303147182883481      2.1713523626166387       0.54306099748311         -43.95784085146221       44.014786818205856
0                         0                        66.59259389794204        0.11470274656676856      2.161557896626789        0.5508053343354504       -43.981940970985875      44.03847012138464
0                         0                        66.59413760181216        0.11477064195813626      2.1609041231677963       0.5511960612161033       -43.98232818828092       44.0388296459962
0                         0                        66.60201094673964        0.11511693777329848      2.157569685747717        0.5531888835191694       -43.984303110661244      44.040663539735995
0                         0                        66.81404900121441        0.12444913689044715      2.0698833060848187       0.6301925590867654       -44.0391905942164        44.09231075546002
0                         0                        66.8194001541784         0.12468474570902566      2.0681783618988447       0.6220527072348006       -44.02049198290902       44.07343900496718
0                         0                        66.79237712219805        0.12349478531402626      2.0788820435410855       0.6230803559943183       -44.033613402167184      44.08706260267859
0                         0                        66.82849431359998        0.12508507487521872      2.061661010292994        0.6122463071127413       -44.037779146300466      44.09026291371227
0                         0                        67.54523069528763        0.15658749428674867      1.7643123684364284       0.8213328312510004       -43.768811728240166      43.81205617013703
0                         0                        67.56971177080956        0.15765877025798547      1.7551620779098585       0.8284030930769575       -43.75207308620523       43.795099554002576
0                         0                        67.58579704305832        0.15836242075558474      1.7475299597884941       0.8295748101878218       -43.742950892919424      43.78570323914436
0                         0                        67.5747026558242         0.15787712089617256      1.7530622150608508       0.8297344644380757       -43.74769400792252       43.79066587096125
0                         0                        67.09907059384635        0.1369974493413992       1.951753131653163        0.7067198999917537       -44.00208091679434       44.05101495212204
0                         0                        67.14100454131878        0.1388422264183286       1.929345436803781        0.7125467559711751       -43.994900923239015      44.042949537236694
0                         0                        67.03790780024401        0.13430529272715763      1.966383584595551        0.6799498334507916       -44.019757163299744      44.068900790621676
0                         0                        67.09468782017824        0.13680459669002165      1.9539493865288904       0.7052615289758251       -44.00276075690101       44.05176802647583
0                         0                        67.3978788967498         0.15012978053258663      1.8262442640580332       0.7816804816793734       -43.880033782464615      43.924976462573994
0                         0                        67.43613277788938        0.15180781508967267      1.8094823416917514       0.7927473029490422       -43.851433305179484      43.89590957651785
0                         0                        67.48542268509908        0.15396833996351986      1.7878847005247769       0.8070068389032592       -43.814581753662104      43.858469717817876
0                         0                        67.33742476404225        0.14747631558053825      1.8512940888022058       0.7621871285023616       -43.90725557176654       43.95287602497148
0                         0                        67.3278904751468         0.147057666110004        1.8558208401752836       0.7596081213026196       -43.91250217313848       43.95826341650304
0                         0                        67.21984609668398        0.14230990030189422      1.901598541431838        0.7334983116418243       -43.96764339800188       44.01485843166846
0                         0                        67.17020495468815        0.1401267282365991       1.9158762704319112       0.7206237539561755       -43.98343020669216       44.0310346599456
