% Model:              ElectrodesShort.mph
% Version:            COMSOL 5.5.0.292
% Date:               Mar 27 2026, 14:50
% Dimension:          3
% Nodes:              81
% Expressions:        5
% Description:        Electric potential, Electric field, x component, Electric field, y component, Electric field, z component, Electric field norm
% Length unit:        mm
% x                       y                        z                        V (V) @ TT1=-0.0087266   es.Ex (V/m) @ TT1=-0.0087266 es.Ey (V/m) @ TT1=-0.0087266 es.Ez (V/m) @ TT1=-0.0087266 es.normE (V/m) @ TT1=-0.0087266
0                         0                        64.25                    0.020659476227906128     1.058233319047922        -0.12409781078995123     -39.37725980904449       39.39167231907242
0                         0                        64.5                     0.030598290634542336     1.0576720430250077       -0.1294754584438067      -40.046197418187575      40.06037146234904
0                         0                        69                       0.22164033190564167      0.7799387602585739       -0.3735426739473269      -40.97048256571435       40.97960810289084
0                         0                        69.25                    0.23180919449360396      0.7784298850681921       -0.35868528598302873     -40.34876341380152       40.35786561803382
0                         0                        64.75                    0.040698806612549834     1.018946794502873        -0.1383875287995771      -40.6889309450562        40.70192262202987
0                         0                        68.75                    0.21132877983621928      0.7898925190301043       -0.3637313165146452      -41.49524444842994       41.50435570512075
0                         0                        63.769990244833664       0.0020848628699710182    1.1122228829291396       -0.11266638284649844     -37.98346118065207       37.99990864090646
0                         0                        63.42359480326117        -0.010878304503917543    1.165965184863446        -0.1155775161971988      -36.85778460446828       36.87640328074232
0                         0                        63.416126860599775       -0.011153466155148558    1.167383363068948        -0.11517232635542562     -36.83363583279221       36.85231033794059
0                         0                        63.03617402471168        -0.024899418447186326    1.2049042987261886       -0.10601917548313011     -35.50223867769725       35.522837521274134
0                         0                        63.134993128251814       -0.021373209021078567    1.2006603725674534       -0.09930203403340754     -35.871651220605166      35.89187662294856
0                         0                        62.593919234661385       -0.04026389025755152     1.273132021138446        -0.11613839484034116     -33.980205180595654      34.00424528474913
0                         0                        62.95666531463143        -0.027711277598556513    1.2171703008651242       -0.10783841203231681     -35.22860700026597       35.249792678023034
0                         0                        63.40305654072223        -0.011634649362208621    1.1676774524285456       -0.11412322115045548     -36.792408617361495      36.811110097488395
0                         0                        62.43750776181266        -0.045531906852512995    1.3078918806268618       -0.1286100299944195      -33.40009470970409       33.425939752360414
0                         0                        62                       -0.059784778931338066    1.3521993857665031       -0.1357942986546945      -31.75473600586285       31.783803140474816
0                         0                        69.744377705333          0.25143365411089524      0.8231178171783995       -0.37966744786078266     -39.056446706102705      39.06696430001393
0                         0                        69.84452339596993        0.25532633111363984      0.8052858703010273       -0.4217750732302079      -38.72549541794953       38.7361636576331
0                         0                        70.39040841586186        0.2759943341933419       0.8139166555563548       -0.46088723266447573     -36.97814150346081       36.98996926753787
0                         0                        70.56695365884426        0.28247192872124227      0.8267141923885788       -0.4654468688922151      -36.390268279159486      36.40263345656272
0                         0                        69.874033787376          0.25646867309676136      0.7939182443576271       -0.4237056722627752      -38.661768774002894      38.67224065670228
0                         0                        70.21590534625722        0.26949571909678804      0.8199628670963364       -0.42797782684992924     -37.5484081863639        37.55979847461234
0                         0                        70.69260269133417        0.28701564204434626      0.8489885881047528       -0.42983509792509267     -35.924830794718645      35.937431842903095
0                         0                        70.75708424701627        0.2893245719153621       0.8196983076387596       -0.44709747936919086     -35.73276202517687       35.74495885323588
0                         0                        70.7766983698599         0.29002475455324217      0.8199488602000713       -0.4488208854138378      -35.66300147259227       35.675249548596646
0                         0                        70.79395708011259        0.29063972226517026      0.8201693245099477       -0.4503373317936763      -35.60161829610618       35.61391170223957
0                         0                        71.33948621440007        0.3095266929702603       0.8384953365491015       -0.4381145286416199      -33.73538926911044       33.74865194208553
0                         0                        71.80481914644129        0.32479859044548537      0.8309699844360239       -0.48577672851024545     -31.903195166482753      31.917712198334083
0                         0                        72.00000000000001        0.3309504880748913       0.8297230789241894       -0.4867888118730974      -31.14240035442627       31.157254429272708
0                         0                        65.03249789673897        0.05229206308300993      0.9685731904826866       -0.15039393751663965     -41.37391589020504       41.38552486620805
0                         0                        65.25                    0.06133622999562009      0.9475920928650445       -0.15204867608205996     -41.78598301755494       41.7970025996811
0                         0                        68.25                    0.1903337400606938       0.8073872685490642       -0.34064805607738435     -42.41708002835321       42.42613102123791
0                         0                        68.48544107570018        0.20027663792956293      0.8077072211004293       -0.3485076194871297      -42.044277212743964      42.053478986380185
0                         0                        65.53122125310787        0.07316351746991785      0.9220620264187289       -0.17394390651155334     -42.30302208348345       42.31342732820002
0                         0                        65.5791845139682         0.07519428742208843      0.9188188487552225       -0.17505236196117835     -42.3765422078597        42.38686354167728
0                         0                        65.52862418286888        0.07305365876630726      0.921445921227015        -0.17357006392581997     -42.30734392940883       42.31773315661088
0                         0                        65.5900065516046         0.0756529803420229       0.917545717372974        -0.1755224260664363      -42.393615750488664      42.40390730422849
0                         0                        65.75                    0.08245534288000345      0.9030043182128225       -0.18041194554572826     -42.63100217768752       42.640946424098104
0                         0                        67.75                    0.16895108139013387      0.8135288698521208       -0.3073010770547171      -43.057172890201855      43.065954075937704
0                         0                        67.85585985991392        0.17350362554608326      0.8132878163676196       -0.31148491030478453     -42.952234593924345      42.961062795665455
0                         0                        67.87968817037817        0.17452677004282754      0.8129497475019889       -0.3134534858931488      -42.92378950368703       42.93263147929108
0                         0                        67.9271036004979         0.17656065807188298      0.8123973123333599       -0.3171730902121226      -42.86634353611055       42.87521424224126
0                         0                        67.99801785102783        0.17959745590546233      0.8101457284240237       -0.3198853485733979      -42.7801039448986        42.788970030532916
0                         0                        68.02238403632089        0.18063948304822308      0.8098537121421998       -0.3205801586901913      -42.750489394013755      42.75936129201299
0                         0                        67.96402479847448        0.17814252737231548      0.8106202004371426       -0.31882971964603257     -42.8214696752224        42.8303283041991
0                         0                        66.81404900121441        0.12837877220614724      0.84527355490901         -0.23730852874030006     -43.470929389515966      43.47979421189485
0                         0                        66.8194001541784         0.12861131525087838      0.8454875187173911       -0.2503031966428395      -43.44995770619556       43.45890386911225
0                         0                        66.79237712219805        0.12743674633537921      0.8463702535648139       -0.2370683470013546      -43.46439080645271       43.47327698924157
0                         0                        66.60201094673964        0.11916806333255309      0.8559813510910459       -0.23542186078321947     -43.406935781055154      43.41601319129379
0                         0                        66.82849431359998        0.1290064573979489       0.8421632905315377       -0.26442573274067627     -43.469701997283664      43.478663177571384
0                         0                        66.31581789039043        0.1067675798145545       0.8727693820287925       -0.22140509015179077     -43.23843272278339       43.24780700718612
0                         0                        66.54074822221668        0.11650995059762091      0.8556202136614748       -0.22866754053595173     -43.374758827097935      43.38379971951547
0                         0                        66.28166689211558        0.1052913299679503       0.8759163031389363       -0.21822145521008451     -43.215839256250774      43.22526590543688
0                         0                        66.22259752085938        0.10273956028629051      0.8624411191884747       -0.1990035874799787      -43.18101977148763       43.19009001631627
0                         0                        66.5545787740612         0.11710989832163321      0.8541968375357287       -0.22979813960182582     -43.38225479085361       43.391272050502984
0                         0                        66.59259389794204        0.1187593111289106       0.8565243281593382       -0.2344687855987786      -43.40416872251228       43.41325226274187
0                         0                        66.59413760181216        0.11882631466225543      0.8564353198283641       -0.23462501988012718     -43.4046223167403        43.41370485014926
0                         0                        67.03790780024401        0.1381088668223435       0.8264449651925929       -0.26378920856666355     -43.46270689638699       43.47136398582742
0                         0                        67.09468782017824        0.14057662634069026      0.8336306235996176       -0.2576749348946805      -43.45046418397004       43.4592242704715
0                         0                        67.09907059384635        0.14076705878508686      0.8332077103821973       -0.2575842788786531      -43.44995952786991       43.45871106835658
0                         0                        66.20445439291339        0.10195654874596699      0.8762411853766991       -0.21457505451670045     -43.14996880423976       43.15939815238201
0                         0                        66.17807875077825        0.10081883792574631      0.8756669365824905       -0.21127856987794758     -43.12303533680631       43.13244263750152
0                         0                        66.17543014638048        0.1007046252216954       0.8747345154373605       -0.2149988706489694      -43.13058545246781       43.13999057092509
0                         0                        67.14100454131878        0.14258856382225624      0.8252166514674295       -0.26870734372539573     -43.441320666382126      43.44998880779914
0                         0                        66.07951135466386        0.0965725475438935       0.8797306010650203       -0.20324373935575757     -43.02973244639648       43.039204318347984
0                         0                        66.15949648494716        0.10001756402150895      0.8715467953729785       -0.21071276999452238     -43.11169072598426       43.12101426150458
0                         0                        66.17382812807128        0.10063553061892061      0.8700804305356655       -0.21205106226497605     -43.126375915718654      43.13567323263295
0                         0                        65.96864039880491        0.09180804413703528      0.8869601510756464       -0.1977986909450471      -42.91120104537098       42.920822426742745
0                         0                        65.96771232869258        0.09176822001611021      0.8870603250476066       -0.19775317166211703     -42.91016179407387       42.919785268926645
0                         0                        65.93139359838851        0.09021051595765041      0.8902569549618846       -0.19627825113842334     -42.875512557891874      42.8852032722205
0                         0                        67.17020495468815        0.14385692698049912      0.8229991249556732       -0.27018237654436916     -43.43163843860867       43.44027559233831
0                         0                        67.3278904751468         0.1507016670566464       0.8244984502471198       -0.28277180939019786     -43.37092571397068       43.37968366502237
0                         0                        67.33742476404225        0.15111515491310099      0.8238998494161933       -0.2831396486894562      -43.36608445819627       43.3748344118792
0                         0                        67.21984609668398        0.14601280646586223      0.8285734354605552       -0.2735816538645679      -43.41929486782465       43.42806175364479
0                         0                        67.3978788967498         0.1537359206554225       0.8222544554206337       -0.284077894781845       -43.3401767416729        43.348906821732044
0                         0                        67.43613277788938        0.15539334275970199      0.8206025505797498       -0.28583827099259196     -43.313624384114675      43.32234007243094
0                         0                        67.48542268509908        0.15752742411953338      0.8184740806335924       -0.28810650567868734     -43.279411823159194      43.288109140246526
0                         0                        67.54523069528763        0.16011464531352734      0.8183269265967947       -0.29307017525254153     -43.23738806861286       43.24612440534113
0                         0                        67.56971177080956        0.1611729351705171       0.8184201395838215       -0.2937008332304174      -43.219657859669184      43.22840382446686
0                         0                        67.5747026558242         0.16138862955290517      0.8182829619483414       -0.29383097786487156     -43.215666438756216      43.22441149854106
0                         0                        67.58579704305832        0.16186803167265743      0.8168721562830683       -0.2981107907869145      -43.21317931030879       43.22192749367147
