% Model:              ElectrodesShort.mph
% Version:            COMSOL 5.5.0.292
% Date:               Mar 27 2026, 14:50
% Dimension:          3
% Nodes:              81
% Expressions:        5
% Description:        Electric potential, Electric field, x component, Electric field, y component, Electric field, z component, Electric field norm
% Length unit:        mm
% x                       y                        z                        V (V) @ TT1=-0.017453    es.Ex (V/m) @ TT1=-0.017453 es.Ey (V/m) @ TT1=-0.017453 es.Ez (V/m) @ TT1=-0.017453 es.normE (V/m) @ TT1=-0.017453
0                         0                        64.25                    0.011809143300723135     2.6967555188172954       -0.9232705173518589      -40.25045372244442       40.35125702675349
0                         0                        64.5                     0.021974335301333716     2.747512901981551        -0.950024379348477       -40.96529174126896       41.06831504840673
0                         0                        69                       0.21736947749265087      2.5016436731212934       -1.1992521261684033      -41.76458598009311       41.856625148451435
0                         0                        69.25                    0.22774332338151856      2.480329647933263        -1.16682168241399        -41.105995862488385      41.19728636509789
0                         0                        64.75                    0.03230870146631861      2.736365756735695        -0.9626701079741414      -41.638055689905975      41.738975944878355
0                         0                        68.75                    0.20684692233053237      2.531955822929376        -1.1915865158142651      -42.35146419904548       42.443812252399844
0                         0                        62.04928938870532        -0.06847088345790367     2.69293912775035         -0.9238945543915804      -32.28363114941409       32.40892380942051
0                         0                        62.07582353688602        -0.06761164601319763     2.6595140968820443       -0.8550318241584769      -32.433612948287376      32.55369938319073
0                         0                        62.60894629471112        -0.04977119325295225     2.660351253620848        -0.9259070348263077      -34.49451007173224       34.60933396814536
0                         0                        62.90946728822147        -0.03922205989025782     2.7067548287249323       -0.8879324910761319      -35.669821830687525      35.78339189127446
0                         0                        62.979025033050085       -0.03673203604394365     2.7131510541285095       -0.8834919440919826      -35.926054443030544      36.03918887130215
0                         0                        63.144265961808344       -0.030745289989663447    2.709765576661998        -0.9010967130196023      -36.54955230491956       36.66094077429994
0                         0                        62.04568389885438        -0.06858725565761198     2.6829537863678716       -0.9335537037883981      -32.25075283601974       32.3756207975643
0                         0                        62                       -0.07005642044549748     2.679410648499486        -0.9277143847374987      -32.06796009032702       32.19307316423438
0                         0                        62.044346807617224       -0.06863037427987642     2.6828500846542394       -0.9333827966957813      -32.245402798378294      32.37027787417896
0                         0                        63.413820334965564       -0.020759539473727974    2.7240791615072837       -0.9007158488667883      -37.54125467383588       37.65073304471458
0                         0                        63.44217968482609        -0.01969382305280281     2.7050023394285816       -0.9078801490863966      -37.63089322363321       37.738911071066994
0                         0                        63.65372402858002        -0.011651355969493727    2.718915816349476        -0.9222335582892729      -38.4280941536987        38.535197394563355
0                         0                        71.5084462030843         0.31264686276939274      2.3035139720060087       -1.3224980099768686      -33.55521223361319       33.66017595985565
0                         0                        72.00000000000001        0.3286969099220533       2.288201102983386        -1.3303501336022432      -31.68966086763902       31.800004743264452
0                         0                        70.25822238805448        0.26776495757691987      2.4356294279993165       -1.2323604526293224      -38.13789871816158       38.23545895673925
0                         0                        70.8927188717135         0.2912578727031764       2.339797321564845        -1.2663314489391553      -35.91425359883067       36.012662473159295
0                         0                        70.99097997473169        0.29476992807682145      2.342825230235519        -1.2693632448339827      -35.542417428199684      35.64215972338315
0                         0                        71.43492086240313        0.31016932515896606      2.3099586686812614       -1.314230482078301       -33.837542086831675      33.94174959086735
0                         0                        71.47801158531703        0.3116238443272813       2.3061816492738814       -1.3190758014002313      -33.672078079964805      33.77672685433764
0                         0                        69.69231906768411        0.2456768514724602       2.4864436633870923       -1.2197350473653614      -39.9539480657628        40.04982049546091
0                         0                        69.73744349254747        0.24747614292886333      2.4791680107899765       -1.2257792837039858      -39.801803954742795      39.89777446086262
0                         0                        69.92847090724169        0.2550209922371676       2.458998703684557        -1.2441431364613322      -39.18853525779977       39.2853135716204
0                         0                        70.20655575471908        0.26579294216669325      2.4229878191875116       -1.2553074315033044      -38.28386230173662       38.38099502954358
0                         0                        65.03249789673897        0.044174611600101964     2.712791989418591        -0.978792025003898       -42.35481679873421       42.452888950699254
0                         0                        65.25                    0.05343379375510941      2.7080843291632317       -0.9806306892002737      -42.7826464480562        42.879484539600476
0                         0                        68.48544107570018        0.19556438249747343      2.5710342684593357       -1.1773940855041758      -42.92968289759483       43.022716647490064
0                         0                        68.25                    0.18541041309731024      2.583899519943543        -1.170919292118242       -43.32389146349465       43.416669152049
0                         0                        65.52862418286888        0.06543140680328823      2.7019706537390427       -1.0054069583381722      -43.321521995715585      43.41734396057422
0                         0                        65.53122125310787        0.06554389632943983      2.7028671694778126       -1.0058193423765474      -43.31608248205569       43.411981814674064
0                         0                        65.5791845139682         0.06762331274068246      2.7018744384814966       -1.0070426434247395      -43.392634729559575      43.48833187350344
0                         0                        65.5900065516046         0.06809299737277767      2.701899441812941        -1.007312372938955       -43.40955084497725       43.50521857631576
0                         0                        65.75                    0.07505838363139059      2.6963798823609864       -1.0132145508607096      -43.6527241569658        43.74765587457484
0                         0                        68.02238403632089        0.17550720404998552      2.599748280301185        -1.151161063834195       -43.67883044673928       43.77127016789455
0                         0                        67.99801785102783        0.17444253162116888      2.6010683764244664       -1.1506241768736283      -43.710509822275625      43.80294695130107
0                         0                        67.96402479847448        0.17295592679162225      2.603045151449237        -1.1497013309237332      -43.75480762246738       43.84724446632811
0                         0                        67.9271036004979         0.17133953915684175      2.6065329471222185       -1.14837218410662        -43.802503765444925      43.89501234536198
0                         0                        67.87968817037817        0.1692611550748565       2.6093214606713673       -1.1446069490552873      -43.86448888808695       43.95693425349463
0                         0                        67.85585985991392        0.16821556795855383      2.6109093842748052       -1.1425924800843177      -43.89473514713836       43.987158796924625
0                         0                        67.75                    0.16356279512425337      2.614798029971837        -1.139168640661012       -44.007730312958756      44.10005897079412
0                         0                        65.96771232869258        0.0845940947873231       2.690068265314113        -1.0313994805412379      -43.93580712625145       44.03016466010181
0                         0                        65.96864039880491        0.08463487078626236      2.690010556355065        -1.0314454692072883      -43.93686197028567       44.031214795247074
0                         0                        65.93139359838851        0.08299915167350187      2.691572338089422        -1.0299192129289807      -43.90080353804162       43.995293458755974
0                         0                        66.07951135466386        0.08951309860754449      2.686693285227989        -1.0369337138752854      -44.05570586849423       44.14973127785873
0                         0                        66.15949648494716        0.09304020144407234      2.681135724449206        -1.0448403213545845      -44.13825778539032       44.231956551792
0                         0                        66.17382812807128        0.0936728811964311       2.680139927137702        -1.0462570181370339      -44.15304934237099       44.24668993277221
0                         0                        66.17543014638048        0.0937436200936633       2.6842978674842755       -1.0488978561083968      -44.156977512191816      44.250924337985786
0                         0                        66.17807875077825        0.09386054803326632      2.6854346601253383       -1.0447095828718886      -44.148190525857686      44.242125899800264
0                         0                        66.20445439291339        0.09502529748305491      2.687707335829373        -1.048226048327848       -44.17659594138544       44.27069208336252
0                         0                        66.22259752085938        0.09582693369942752      2.6737001451490983       -1.032026659441044       -44.20813592007204       44.300937157350646
0                         0                        66.31581789039043        0.09995060875975907      2.686619680100762        -1.0554177781123144      -44.26359073859936       44.357606980833395
0                         0                        66.54074822221668        0.10992310149875158      2.6739769780822535       -1.0622269364100134      -44.39460406808911       44.48774381002191
0                         0                        66.28166689211558        0.09843933797411372      2.689132814151847        -1.0521097762755858      -44.24162796587598       44.33576451742388
0                         0                        66.5545787740612         0.11053715258537052      2.6727685023293724       -1.0628235632686938      -44.40298559345774       44.49604943145514
0                         0                        66.59259389794204        0.11222534939355         2.6754021174183293       -1.0677786471928812      -44.423450948037384      44.51674877910528
0                         0                        66.59413760181216        0.11229392635227536      2.6753209180961477       -1.067944558124509       -44.423846842389025      44.5171429437028
0                         0                        66.60201094673964        0.1126436985703129       2.674906777606836        -1.0687907527962466      -44.42586602031963       44.519153311777394
0                         0                        66.81404900121441        0.1220696333073318       2.6653419934321896       -1.0704302484078312      -44.48211573265727       44.57475169770635
0                         0                        66.8194001541784         0.12230758570203776      2.665672150759292        -1.083734688422787       -44.45983020564742       44.55285390191321
0                         0                        66.79237712219805        0.12110568460550118      2.666316354802923        -1.070329738731175       -44.47636369615712       44.5690674827996
0                         0                        66.82849431359998        0.12271191036786126      2.662327202504944        -1.0983727501479734      -44.480073028186425      44.573212868540935
0                         0                        67.54523069528763        0.15452999108074011      2.6275595736003527       -1.1255480355445417      -44.20393201224101       44.296258679892624
0                         0                        67.56971177080956        0.15561191956795042      2.6268834957464833       -1.125879580137564       -44.184845091662424      44.27717987297069
0                         0                        67.58579704305832        0.15632253067648721      2.6247807639058465       -1.1303566956638988      -44.17735691656068       44.26969668352376
0                         0                        67.5747026558242         0.15583243005939837      2.626591383106529        -1.1259685305747382      -44.180441145684085      44.272770042690006
0                         0                        67.09907059384635        0.13474408601165536      2.652412547471201        -1.0898875398673908      -44.44787450983972       44.540281719068645
0                         0                        67.14100454131878        0.13660731805756526      2.6433740019933962       -1.1022320762839968      -44.435124233484316      44.527324277454504
0                         0                        67.03790780024401        0.13202481958258236      2.6466454603626595       -1.0960415769038434      -44.46271059062628       44.55489504416939
0                         0                        67.09468782017824        0.13454927952680976      2.6528374155428054       -1.0899887371341492      -44.4485639543841        44.54099751248681
0                         0                        67.3978788967498         0.14800798013261426      2.6355700608707373       -1.116775688709005       -44.31777330189832       44.410116504273
0                         0                        67.43613277788938        0.149702748802696        2.6330050592080028       -1.118426918397784       -44.28859131233408       44.38088456581916
0                         0                        67.48542268509908        0.15188480268829815      2.629700069225802        -1.1205545184149717      -44.250990485569105      44.34321959259108
0                         0                        67.33742476404225        0.14532800235623092      2.6384036519455094       -1.1163406334873542      -44.34766736681058       44.440105660516274
0                         0                        67.3278904751468         0.14490515253241207      2.6391995325108155       -1.1159786191574952      -44.35319505839857       44.445660016914736
0                         0                        67.21984609668398        0.14010976525333396      2.645836507738153        -1.106949560296215       -44.408868979818635      44.5013868572814
0                         0                        67.17020495468815        0.13790467959169778      2.6408542766776417       -1.1036430447540795      -44.42399688386138       44.516105382414196
