% Model:              AluminaWithRodsOriginalRotated.mph
% Version:            COMSOL 5.5.0.292
% Date:               Mar 9 2026, 17:50
% Dimension:          3
% Nodes:              527
% Expressions:        4
% Description:        Electric potential, Electric field, x component, Electric field, y component, Electric field, z component
% Length unit:        mm
% X                       Y                        Z                        V (V)                    es.Ex (V/m)              es.Ey (V/m)              es.Ez (V/m)
0                         0                        164.9461239261388        -0.19449665942914376     -10.110743102952314      6.667109409066793        -51.035580828277276
0                         0                        165.02798747138166       -0.19028487255712087     -9.951113206155153       6.56662396554541         -51.862173881339025
0                         0                        165.17555215054858       -0.1825218994693485      -17.422070971518902      5.86040493777863         -63.305308739499864
0                         0                        110.42410161750976       -0.47653630772914357     -4.956103759818205       -19.221200960825755      5.480175120755547
0                         0                        110.43882774468382       -0.47661709537908825     -4.903119058989262       -19.295080596152417      5.491838967329912
0                         0                        110.35245611447527       -0.4761457144336205      -5.213787091756728       -18.861611954361706      5.423282471673737
0                         0                        109.77911860385733       -0.47831306011329333     -10.416030415204773      18.248755274566065       0.28422863590464825
0                         0                        109.79044388422865       -0.4783164114767453      -10.34601337766054       18.583412285738646       0.630460756687647
0                         0                        212.88078922342103       0.9997992299670954       -4.7949229414712136E-4   8.532943159673678E-4     -0.005938136240089875
0                         0                        213.44316148433325       0.9998023457187973       -4.4143601077095695E-4   6.634889940928534E-4     -0.005142608379735236
0                         0                        214.2682797894879        0.9998061074373528       -4.287631694914751E-4    2.6180525809138544E-4    -0.004011458720279748
0                         0                        212.6823141171125        0.9997980235327897       -4.92923299617587E-4     9.202813172750623E-4     -0.0062188977349535435
0                         0                        214.8294647074972        0.9998080894503079       -2.698628627229027E-4    3.9797090757787146E-4    -0.0030522127774403884
0                         0                        215                      0.999808585104806        -2.2157555236645976E-4   4.3934951229118724E-4    -0.002760712984475333
0                         0                        214.82707416681174       0.9998080821489854       -2.7053974775270717E-4   3.973908678318594E-4     -0.0030562989822193742
0                         0                        214.81967134129312       0.9998080594768998       -2.726358682636487E-4    3.955946495892704E-4     -0.0030689527976193176
0                         0                        211.6867784006586        0.9997889686487336       -1.4483848503843433E-4   0.001174136051439234     -0.010700074846234031
0                         0                        211.7500761218155        0.9997896394813216       -1.2770477001033953E-4   0.0011356123629742143    -0.01049603066720195
0                         0                        211.67421025676052       0.9997888339140587       -5.31960322760483E-4     7.575599021549806E-4     -0.010493828881436684
0                         0                        211.45596315935217       0.999786483372554        -7.083178998641415E-4    6.620032971031975E-4     -0.010961905981559994
0                         0                        211.5184852707643        0.9997871690659539       -6.7095229930203E-4      7.320368641785535E-4     -0.010888071962085633
0                         0                        211.64483979430213       0.9997885246135151       -5.581748611049875E-4    7.527461378913358E-4     -0.010568184975028316
0                         0                        211.31454894445204       0.9997848674056597       -9.382941194644445E-4    7.292783185821605E-4     -0.011892471070751753
0                         0                        211.39370025035348       0.9997857880973391       -8.095735509527913E-4    6.916236470004833E-4     -0.011371622144224602
0                         0                        211.41656429861487       0.9997860463786512       -7.723906740579878E-4    6.80746527438103E-4      -0.011221167077593464
0                         0                        211.1201799477085        0.9997823565039881       -0.0015481167795883266   8.174911417029307E-4     -0.013293468150891385
0                         0                        210.3452379863697        0.9997708954500601       -4.330837041433E-4       0.0010324993466686028    -0.016285660350471964
0                         0                        210.56147946379681       0.9997743268101457       -7.442249399076672E-4    9.725029931573204E-4     -0.015450712581071002
0                         0                        210.02101381999165       0.9997654122991375       3.3429515326588444E-5    0.0011224555750999343    -0.017537548969016825
0                         0                        209.71179060841058       0.9997598046807359       4.7835845961685663E-4    0.001208249778045456     -0.01873151616666746
0                         0                        209.93866930782227       0.9997639550876202       1.5191174944106933E-4    0.001145302119397229     -0.017855496143454275
0                         0                        207.2323755752791        0.9996799577223305       2.0241541332666202E-4    -4.228909353969357E-4    -0.046487301042958507
0                         0                        207.8036678012059        0.9997048312468737       3.894467727434403E-4     4.6210088319753595E-4    -0.039421935463906266
0                         0                        209.19254919085446       0.9997489625026766       4.590816178762225E-4     0.0010157866406359517    -0.02397779562684832
0                         0                        209.20383927588765       0.9997492324537629       4.6996000256882553E-4    0.0010298446806444872    -0.023843117220309296
0                         0                        209.18313668367736       0.9997487362830804       4.500123437196635E-4     0.001004066498666134     -0.02409007657637119
0                         0                        209.34448134979868       0.9997524678211475       6.054734729730171E-4     0.0012049675339227406    -0.022165410599882307
0                         0                        208.23612273355397       0.9997208498640324       2.762875626558525E-4     5.420254792625201E-4     -0.034660314318500696
0                         0                        208.66348054116767       0.9997346567542407       1.6446210236864545E-4    6.210080451296562E-4     -0.029954815962327075
0                         0                        209.09875027683944       0.9997466521391443       5.0566350908720636E-5    7.014528615894022E-4     -0.02516220192989671
0                         0                        208.92851433494647       0.9997422090817851       9.511148888030618E-5     6.6999053375838E-4       -0.027036614729823327
0                         0                        208.83765519751552       0.999739707109619        1.1888633241241564E-4    6.531983105020345E-4     -0.028037035253603904
0                         0                        207.89819139692102       0.9997085083613647       3.6471306152918714E-4    4.7957035729950803E-4    -0.0383811667769578
0                         0                        208.09397155889755       0.9997158116135131       3.134838425609132E-4     5.157536660078677E-4     -0.036225494845950834
0                         0                        208.7660955384964        0.9997376725972851       1.3761113767429833E-4    6.399729395809572E-4     -0.028824955473851332
0                         0                        206.54305959449036       0.999645225584451        -2.5249315689279683E-4   -3.15891933315271E-4     -0.04876872081817396
0                         0                        207.04328180963108       0.9996709249460384       3.936050497799215E-5     -1.767872709024232E-4    -0.04875827719803283
0                         0                        203.2673918305743        0.9993538275239122       0.0014596124250374487    0.0034014593403917104    -0.1272997284256725
0                         0                        203.67510250784233       0.9994039200633492       0.002431499523353864     0.0018790002999176103    -0.11857962961342494
0                         0                        202.7758103405162        0.9992886196349365       0.004823206422230442     4.97912423387703E-4      -0.1599491719035102
0                         0                        203.0380262801302        0.9993240568570986       9.075681017520765E-4     0.004152605010876442     -0.13229171201280288
0                         0                        205.46800071627075       0.9995784202105532       0.0035183323224714513    8.186908724194808E-5     -0.07607743054066418
0                         0                        205.57217793160692       0.99958621710683         0.0035814832665153062    -2.2554088789483728E-5   -0.07360781975937414
0                         0                        205.17171961949148       0.9995548394261775       0.0033387303729455198    3.7884969893475784E-4    -0.08310102959245569
0                         0                        203.8360371737647        0.9994226966458964       0.0025290561346196228    0.0017176856697962428    -0.11476453449190416
0                         0                        204.64282911690609       0.9995075725176844       0.0030181234679105273    9.089889036388854E-4     -0.0956388353212887
0                         0                        204.88311464594221       0.9995298687915178       0.003163781594480497     6.681360642772916E-4     -0.08994265951974967
0                         0                        204.92816214421524       0.9995338964304352       0.003191088832835476     6.22982209669054E-4      -0.08887476970291175
0                         0                        204.98860167731914       0.9995392246820065       0.0032277265329696547    5.623999797519375E-4     -0.08744199841918032
0                         0                        204.97690542510446       0.9995382003168307       0.0032206364089972794    5.74123846631025E-4      -0.08771926817021836
0                         0                        206.05009418834925       0.9996181782700927       5.953788976036378E-4     -1.2763257421433138E-4   -0.06096439238196183
0                         0                        206.45568286312837       0.9996408698941438       -1.0221022073153563E-4   -2.8252349156332457E-4   -0.050930369292416344
0                         0                        202.61824476900827       0.9992629269704423       0.003932822223767118     0.0016512409530289318    -0.16617111247197291
0                         0                        202.07161997917433       0.9991661942485184       -0.00775564408967        -0.0064839827312388465   -0.16714979476004999
0                         0                        202.23101691675808       0.9991956203694361       0.0017446439464734453    0.004485622380403953     -0.18146194447342934
0                         0                        200.3420338113724        0.9987763315977318       -0.005920718904718569    0.009833000889207355     -0.28366631147871146
0                         0                        200.66013500219336       0.9988631578258835       -0.006258193785839694    0.006832021801210786     -0.26223688320939686
0                         0                        201.5401088709133        0.9990678365924456       -0.0071917617362515784   -0.001469686127183678    -0.20295594543624773
0                         0                        201.88252335194937       0.999133382352497        -0.007555030688429554    -0.004700037746888874    -0.17988861097963849
0                         0                        200.1198458276124        0.9987116414890781       -0.005684998745323355    0.01192913102659432      -0.2986343832673555
0                         0                        201.25090744031195       0.9990063242524843       -0.0068849467313896184   0.0012586514913976998    -0.22243849215819367
0                         0                        201.09573290339338       0.9989709963964453       -0.00672032141746115     0.0027225741477074905    -0.23289208901376668
0                         0                        199.14395875183146       0.9983881295264162       0.03005845756308645      -0.03586571885455214     -0.419415747092863
0                         0                        196.4759897370597        0.9971979783228389       0.04585783535418031      -0.008226157283544921    -0.7617197256584873
0                         0                        193.80802072228798       0.9943236402744215       -0.0700091323329417      -0.206034219411805       -1.3929814965094636
0                         0                        191.14005170751622       0.9897651153811639       -0.1221053526174174      -0.05418248259292113     -2.4409203354862257
0                         0                        182.96397557991494       0.9362144336366842       -0.2080449828181159      -0.6340548408341391      -14.489158583650067
0                         0                        185.68933428911538       0.9645062911751943       -1.0657719710878268      -0.1638375064831763      -8.465323230828439
0                         0                        188.4146929983158        0.9823565184233536       0.07907885771368228      0.06405370817697076      -4.6340366353794025
0                         0                        181.7953351020873        0.9167471258462284       -0.1563627928539404      0.6585663188748754       -18.648172345550172
0                         0                        182.04724190422863       0.9213366655899569       -0.1724707715520566      0.6721399997151138       -17.790222368014582
0                         0                        181.53778411670288       0.9118313122891892       -0.13989390137927415     0.6446885083279597       -19.525345412122782
0                         0                        182.17375211105073       0.9235600554880417       -0.18056036539887543     0.6789568429118162       -17.35935099741892
0                         0                        181.19185815366023       0.9048732098582601       -0.11777394274221109     0.6260487233887346       -20.703508009156998
0                         0                        181.38352864218646       0.9087789005118595       -0.13003015861236378     0.6363766463172738       -20.05071225323666
0                         0                        181.13050822854234       0.9035966417512707       -0.11385097091879715     0.6227429599236984       -20.91245499442801
0                         0                        180.59330517332214       0.8918709687081366       -0.4802905513421365      0.7180052288666161       -24.020234908428392
0                         0                        179.57188372682987       0.8641659343741929       0.20824136283223993      -0.049947396719588255    -30.2099211735923
0                         0                        180.05628119614028       0.8782808386304208       0.4998125605057595       0.564290418460871        -26.592514820299584
0                         0                        179.34241509199873       0.8571173021959142       -0.047759629846012785    0.42516147953280736      -28.44682768550733
0                         0                        180.10564376588349       0.8795876778366265       0.4097227129945935       0.5784196908426793       -26.356074080325328
0                         0                        180.35043722036167       0.8858959582946567       -0.03704100089598228     0.6484880323741891       -25.183543034660914
0                         0                        176.74096270535384       0.7532348784451961       2.252551536473277        -0.3694848166785647      -51.41811566999785
0                         0                        177.48264918323065       0.7889422642186191       1.596721856204482        -0.14292736914628534     -44.86889194982664
0                         0                        178.3813067059403        0.8256984702853745       0.8020919237873301       0.1315788550113126       -36.933585941702404
0                         0                        178.55917027816332       0.8321279364850974       0.6448176398656358       0.18590951646160647      -35.363018915198126
0                         0                        178.579634476332         0.8328497633459797       0.6267223544016503       0.19216056274748894      -35.182316399973374
0                         0                        176.51455083384448       0.7413668788695538       2.4527542228241828       -0.4386451657346484      -53.417372827364765
0                         0                        177.92848296292158       0.808068754546894        1.2024972964891845       -0.0067418431009613755   -40.932100256436144
0                         0                        175.10061870476733       0.6570116751638885       -0.24609222995994173     -0.6810524498060602      -65.54564559445848
0                         0                        177.91228478872478       0.8074045708218888       1.216820388147596        -0.01168977879905242     -41.07513302006003
0                         0                        173.98513361556152       0.5764505628711177       -0.14127328367851533     0.0650322369860703       -77.29841847686711
0                         0                        174.04085623933926       0.5807436994646558       -0.1747459481579341      0.08780429929268507      -76.7911165264292
0                         0                        172.8696485263558        0.4845612087036243       0.5288002984944953       -0.39083100546965355     -87.45385845930078
0                         0                        172.98109377391128       0.4942509892178486       0.4618549695355725       -0.34528688085640624     -86.43925455842505
0                         0                        173.61474335186702       0.5471954932605926       0.08122070857427843      -0.08633447173617625     -80.6704725988148
0                         0                        173.71162982741973       0.5549686411891246       0.023020856002460732     -0.04674005373540879     -79.78841259002911
0                         0                        172.12886799896668       0.4172791412810887       0.973788283000026        -0.6935644229140436      -94.19796670319714
0                         0                        172.45828756838893       0.44781582127860886      0.7759054488351786       -0.5589411325642182      -91.19891212265694
0                         0                        171.9213313084832        0.39753354442345845      1.098455887229214        -0.7783780610055944      -96.0873925904215
0                         0                        171.7886167204258        0.38556058451182745      -3.0721363753145567      3.0698175356645296       -96.40512127437822
0                         0                        170.61791132810197       0.27359912236612893      -4.470751338156106       1.3978907042992361       -94.8666758486469
0                         0                        170.89735135295933       0.30015997622372925      -4.136910730138929       1.7969691388736075       -95.23389310998937
0                         0                        169.44720593577813       0.16343872657613018      -5.869366300997783       -0.2740361270660845      -93.32823042291548
0                         0                        169.86564656818257       0.20260609650942052      -5.369464845534154       0.32355411659183275      -93.87811093178112
0                         0                        171.2342960554289        0.3323231290685815       -3.7343705986814015      2.2781720891966133       -95.67667832276595
0                         0                        171.4844657033713        0.35629965195226276      -3.4354986406676353      2.635448436884641        -96.00543084501221
0                         0                        169.93970654371077       0.20956231099834358      -5.280987086227199       0.429321853742227        -93.97543450381568
0                         0                        170.08781481891992       0.22349526380488016      -5.104045516480937       0.6408406533420887       -94.17006630443991
0                         0                        169.23757560779816       0.1439031734054697       -5.497013000748069       -0.6431210985026645      -93.28336560023364
0                         0                        168.58150749118136       0.08333204955567303      -0.4548366230509834      -0.6176616711824323      -89.74890335495604
0                         0                        168.7586310041154        0.09929423651534963      -3.872482699950581       -0.9398411607537938      -92.99678683119953
0                         0                        168.78517071453342       0.10176255503509807      -3.9625026384089708      -0.9233990410037975      -93.01266699246166
0                         0                        167.56514423719474       -0.006540842394111623    -0.3153895181973062      -1.4490959860931096      -82.93644807064648
0                         0                        167.81454113320066       0.014479194032264383     -0.36257707677854467     -1.189447074061659       -85.6304969315644
0                         0                        167.49066862779912       -0.01268762692300517     -0.30129823543671874     -1.526633081630988       -82.13194354845038
0                         0                        167.46047236482593       -0.015162779863627011    -0.29558490078498034     -1.5580706293870792      -81.8057558164869
0                         0                        167.31121409997914       -0.02725263855308809     -1.8394012609265076      -2.889861600011656       -79.84141920471777
0                         0                        167.3146184214964        -0.0269795717380032      -0.26798836046958674     -1.7099202245805838      -80.2302043313633
0                         0                        167.03114621175158       -0.0491721484233872      -1.2364546272201835      2.897984126456196        -79.23387276256925
0                         0                        166.5661352428553        -0.08494953442461234     -1.4832653786143766      3.461063501238974        -74.6437275277809
0                         0                        165.9541795884175        -0.1302393300536563      -17.347025890441703      6.664062439734439        -70.98887837208694
0                         0                        166.23970333221467       -0.10956807738494943     -17.319506756821816      6.95876474218237         -73.80645383953609
0                         0                        166.24303181679878       -0.10932235907776143     -17.319185953336984      6.962200225542006        -73.83929964207184
0                         0                        166.29116824887464       -0.10575656588498773     -17.314546504131613      7.011884070310003        -74.31431453331624
0                         0                        166.55181641243587       -0.08605146959077124     -17.289424909880253      7.280911132328637        -76.88641540842794
0                         0                        162.05399076376364       -0.3317677043220876      -10.999980371138928      2.174475602477049        -37.49131032623985
0                         0                        162.2749141431538        -0.32331670674840873     -10.841441541335266      2.3577677461545274       -39.01483037291601
0                         0                        163.68055193882626       -0.2616632224720712      -9.832729055273873       3.523974625272551        -48.7083149012805
0                         0                        164.12239869760666       -0.23946844901272435     -9.515651395666492       3.8905589126275473       -51.75535499463316
0                         0                        161.93366103451353       -0.3362290980479785      -11.086331279397504      2.07464237485193         -36.66149885391092
0                         0                        161.98661731850748       -0.33427797163633066     -11.0483288401883        2.118578289833997        -37.02669316012229
0                         0                        163.43989248032614       -0.2731856371810787      -10.00543087179102       3.32430817002237         -47.04869195662324
0                         0                        163.57268550443138       -0.266877095813952       -9.910136065483794       3.434481742963577        -47.96445213936863
0                         0                        160.42742958870087       -0.3836270420298471      -7.476643522292591       0.16703095424215064      -29.3161464217724
0                         0                        158.0233536406224        -0.4355648532574098      -0.821059904962091       -0.7905944282905004      -18.094651189690563
0                         0                        158.0762704741724        -0.4346032539594493      -0.7768178271327262      -0.8422545024811683      -18.249144666948233
0                         0                        155.9421408490215        -0.466900729629316       -2.5610955822418013      1.2411901666646052       -12.018441040347588
0                         0                        156.18635890857473       -0.46387854463008016     -2.3569126469968307      1.0027722147798102       -12.731448503159127
0                         0                        157.29710472771293       -0.4479361332838071      -1.4282534721686662      -0.08159371519314274     -15.974329311323045
0                         0                        158.86226715820692       -0.41935765042510587     -0.11967105292340108     -1.6095839945696255      -20.543903303909484
0                         0                        157.34231061274076       -0.44721101643156286     -1.3904582726154229      -0.12572597363952287     -16.106310269024554
0                         0                        158.88487010072086       -0.41889255197021585     -0.10077345314666886     -1.631650123792923       -20.609893782760388
0                         0                        157.99711845963597       -0.4360385649645445      -0.8429943035495189      -0.7649823251988899      -18.018056199681453
0                         0                        155.79975112476072       -0.46858243541388533     -2.0796825989660306      2.2132987095354366       -13.826716876376253
0                         0                        155.7405378532409        -0.4693990110932914      -2.1334253595947885      2.22630415635075         -13.754116218884334
0                         0                        153.41525443488845       -0.4940487031924802      -2.6148938105794883      1.458500048075365        -8.159930006315443
0                         0                        154.05221818318137       -0.48842524579500096     -2.338256151623739       1.7255609020923544       -9.49714204072097
0                         0                        154.60363882436073       -0.48286915598029684     -2.098770441982211       1.956755954794346        -10.654768859171561
0                         0                        155.49518611270835       -0.4725355832625133      -1.711565431716096       2.33055647462092         -12.526441723467514
0                         0                        153.39809264802443       -0.4941884330140142      -2.622347290552568       1.4513045970491447       -8.123901350072453
0                         0                        154.60222114767353       -0.48288425888806813     -2.099386148544653       1.9561615631232598       -10.651792654745291
0                         0                        154.5693152506327        -0.4832336290925507      -2.1136774019286975      1.9423650527418204       -10.582711546685733
0                         0                        155.63242528790207       -0.4707966945003769      -1.6519615307966262      2.3880969726949246       -12.81455525764061
0                         0                        152.2268700454162        -0.50226342285768        2.748369249400241        -3.9883335025333224      -7.851359211468697
0                         0                        154.072137827898         -0.488235649596144       -2.3296049153539684      1.733912644784084        -9.538960415326375
0                         0                        150.00816688780228       -0.5150055624104646      -0.9704282488022287      -2.173011610364501       -3.063457094929234
0                         0                        150.05979751274327       -0.5148441747273105      -0.9458204913059518      -2.1646755724732643      -3.188169079995488
0                         0                        147.8696436362751        -0.516033534921338       -1.9896733505967177      -2.51828751737089        2.102071699526972
0                         0                        147.89272498007034       -0.5160814101432315      -1.9786725131779974      -2.5145609121501025      2.046319513571616
0                         0                        147.86216508623266       -0.5160177469260092      -7.543976051162161       0.5100414599883081       13.165339123053457
0                         0                        148.0006478235121        -0.5162881878905204      -1.9272352283735579      -2.497136197394539       1.7856356257624988