% Model:              AluminaWithRodsOriginalRydberg.mph
% Version:            COMSOL 5.5.0.292
% Date:               Mar 10 2026, 10:26
% Dimension:          3
% Nodes:              570
% Expressions:        4
% Description:        Electric potential, Electric field, x component, Electric field, y component, Electric field, z component
% Length unit:        mm
% x                       y                        z                        V (V) @ Length=0.18      es.Ex (V/m) @ Length=0.18 es.Ey (V/m) @ Length=0.18 es.Ez (V/m) @ Length=0.18
0                         0                        1.1159286764430745       -0.45538749036406045     -1.9938742258503055      1.227933396911368        9.974660435641164
0                         0                        2.226871514435226        -0.4652950502626806      -2.360095401964898       1.5571741054573103       7.8616486160940084
0                         0                        0.004985838450923702     -0.44313249511792185     -1.6276530497358408      0.898692688365383        12.087672255188254
0                         0                        0                        -0.4430722042963118      -1.62600947316389        0.8972150777017518       12.097155313377081
0                         0                        4.448757190419526        -0.4797822501928265      -3.6245593272480185      4.680224582171309        5.609760525680009
0                         0                        5.559700028411679        -0.48550863512857323     -3.5435964893938774      5.959138764091094        4.699293621689236
0                         0                        3.337814352427376        -0.4730443885708624      -3.705522165102167       3.4013104002516172       6.520227429670882
0                         0                        7.781585704395979        -0.493705620134948       0.3745657061387391       4.556236884632032        3.20821183921484
0                         0                        8.89252854238813         -0.4970025838316603      -0.12545844923215554     5.079944374749076        1.573756765037757
0                         0                        6.670642866403828        -0.48987430390058584     -0.3501160312462499      4.069748326623817        3.6892019670381444
0                         0                        12.114304325300854       -0.5059224559762624      2.451424865965194        3.6424048261618225       2.284848868479175
0                         0                        12.275301246954264       -0.5062864175500645      2.396107572586587        3.5725267110468693       2.2364993668043383
0                         0                        12.602029745499275       -0.5070011161858138      2.2838461950173325       3.43071548013517         2.1383784839614055
0                         0                        10.503416433844489       -0.5018521702520915      3.004913449329763        4.341584713332779        2.768619775438875
0                         0                        10.675431548900793       -0.5023239716875842      2.9458103901691572       4.266924329221325        2.716961364780417
0                         0                        10.747279143943704       -0.5025184037075348      2.9211241138558535       4.235740040319442        2.695384583179969
0                         0                        11.498283068006318       -0.5044579587471358      2.6630849913102423       3.909778909395385        2.4698481871334366
0                         0                        10.195405805197222       -0.5009851604954637      3.110743512002216        4.475271754949617        2.8611194347660494
0                         0                        12.801160330815406       -0.5074209785866768      2.2154264706182403       3.344286063841139        2.078576939500887
0                         0                        13.325064348972434       -0.5078512948040362      2.159598237744042        3.4502989796628256       0.35891616553109884
0                         0                        13.382061806253013       -0.5078688844865591      1.864239885670436        2.9757989134196023       2.234183474000872
0                         0                        13.144877410435662       -0.5077579639857177      1.9997572796745544       3.341689549246226        0.6770170611085291
0                         0                        13.724418028916485       -0.5085984716502562      2.183853134735788        3.0725221466570183       2.0279687253731282
0                         0                        14.145440958795813       -0.5093989075234195      2.576907204274338        3.191470471090005        1.7743698949615272
0                         0                        14.275456610457477       -0.5096245123853697      2.6982858213582563       3.2282027790420607       1.696056304758585
0                         0                        13.999978197202806       -0.5091344302004371      2.441107640039562        3.150374011655293        1.8619878929146463
0                         0                        14.408897603878932       -0.5098454730429165      2.247245544821478        3.527411746216284        1.2913581640481073
0                         0                        14.421531948870113       -0.5098617542946814      2.2575856273314443       3.519954926335849        1.2859423254026119
0                         0                        14.440250818107629       -0.5098857505805245      2.2729053492913636       3.5089070060545495       1.2779182944388783
0                         0                        14.982390586085346       -0.5105155659893043      2.7165983097690756       3.188934850579244        1.0455246476983238
0                         0                        15.318386320984061       -0.5108426614248432      2.991580797921806        2.990629384210308        0.901496707424382
0                         0                        14.809200467892754       -0.5103280626624783      2.5748576723814214       3.2911520622622312       1.1197643281710592
0                         0                        14.412750461968301       -0.5098504452810401      2.250398764918904        3.5251377803860926       1.2897065978015707
0                         0                        16.9519932885247         -0.5127228920837905      3.584707334883637        2.164929217727524        0.872472399316254
0                         0                        17.128849641560656       -0.512871862085533       3.654320833352621        2.0577784195180424       0.8121716542943673
0                         0                        15.86990527520044        -0.5115791833124318      3.158780129183725        2.8205267824767333       1.2414199223352824
0                         0                        16.223617981272362       -0.5119969601728327      3.298007126121732        2.6062251860574506       1.1208184322915002
0                         0                        16.899969877437282       -0.5126770417019165      3.5642300854891715       2.1964483004628663       0.890210243579669
0                         0                        15.765858453025611       -0.5114481719482004      3.1178256303950747       2.883564947947221        1.27689561086234
0                         0                        16.607949013085857       -0.5124025439005968      3.449285987386606        2.373373065516546        0.9897773520271826
0                         0                        15.712299754411813       -0.5113792940549055      3.096744067194493        2.9160142052627833       1.2951569250496107
0                         0                        18.03408130184896        -0.5134673671629449      3.1053211358340604       3.7602036715331906       0.2932637520147807
0                         0                        16.603737024339956       -0.512398371945079       3.447628081028739        2.3759249555019473       0.9912134670157542
0                         0                        19.55767342842577        -0.513536160725364       2.964987906148771        3.239259697302259        -0.20767463356489202
0                         0                        21.081265555002584       -0.512834544289766       3.3462824495258516       2.2248143422093065       -0.7133283348274091
0                         0                        22.60485768157939        -0.5113625178561496      3.866738067575284        1.6471187219392505       -0.47452954630217903
0                         0                        24.128449808156198       -0.5105891551185571      2.743270635451724        2.127949353115085        -0.6295113605504241
0                         0                        25.652041934733006       -0.5094442807510995      1.7138268988085485       2.031396017741571        -0.8733506554536916
0                         0                        27.175634061309818       -0.5079278947537772      0.9163018514328769       1.7994348454676867       -0.7783014267046582
0                         0                        28.679814428220418       -0.5060520405823344      1.4817281496217305       0.13056076684775064      -1.2027251919502078
0                         0                        29.022237989317514       -0.5056436577700082      1.2699532262106814       0.012502122278199579     -1.1825242985814697
0                         0                        29.345738760993616       -0.505264197182589       1.0698812716827177       -0.09903244181219151     -1.1634397339200309
0                         0                        30.18399479513102        -0.5043096635127367      0.5514543069625368       -0.38804109202132153     -1.1139877607346804
0                         0                        30.703078109092328       -0.5037393589300999      0.23042257449100667      -0.5670073765508423      -1.0833650236739292
0                         0                        30.071984520313404       -0.5044348116654471      0.6207280663229469       -0.34942289302689034     -1.1205956810849873
0                         0                        29.741928527509625       -0.5048078842922489      0.8248541561674045       -0.23562826097057155     -1.1400669636539202
0                         0                        29.52726342649816        -0.505053976133694       0.9576157137542509       -0.16161737579494684     -1.1527308901712452
0                         0                        28.351448743903987       -0.5064501547415863      1.6848088530175431       0.24377262496091134      -1.2220967566685133
0                         0                        31.444498236976987       -0.5031734237514577      -0.03268556556676572     -0.7927087132706134      -0.011524914298391309
0                         0                        31.5154564958961         -0.5031777114441183      0.07481288749403348      -1.502887141723022       -0.7340341019236831
0                         0                        30.95189221191692        -0.5034251548409806      -0.001702680852957883    -0.6449491380981982      -1.0105132935867402
0                         0                        31.06701338291391        -0.5033222615678711      -0.008943327105100707    -0.6794802937368587      -0.7770514474348857
0                         0                        30.935528599806172       -0.5034419620005778      -6.73477226172281E-4     -0.6400407929892395      -1.0436981462078307
0                         0                        31.546152139193033       -0.5031553819033885      0.07339146549023212      -1.5196083694018228      -0.7208655731602214
0                         0                        31.668580508741066       -0.503070342607845       0.06772217956967097      -1.5863003302689833      -0.6683434125958474
0                         0                        31.676234414499834       -0.5030652397363411      0.06736775044265642      -1.5904697395750418      -0.6650598626415984
0                         0                        31.701954635737856       -0.5030482761487292      0.06617672512149397      -1.6044806423965383      -0.6540258057919335
0                         0                        32.19640946058262        -0.5026973949757115      -0.16380836291759238     -1.5327630936632168      -0.4470317178463006
0                         0                        32.471482520333325       -0.502614613723266       -0.35294883169933655     -1.6771159094574912      -0.1548538504494985
0                         0                        32.53343857118783        -0.5026070582122767      -0.39554986472337816     -1.7096292003062672      -0.08904520009522798
0                         0                        32.63620127433405        -0.5025729325848604      -0.14667397798174164     -1.7070884159993405      -0.316579246838927
0                         0                        32.932953597957464       -0.5024922718198819      -0.1648455169019023      -1.7869528466000233      -0.2270442300957356
0                         0                        33.26320408325416        -0.5024337437552928      -0.18506830563584575     -1.8758325784983452      -0.12740227154459305
0                         0                        33.402242975952916       -0.502418946246297       -0.19358231024155081     -1.9132518709951079      -0.08545196957649637
0                         0                        33.64251907952191        -0.5024071236144869      -0.2082955448820698      -1.9779169558853447      -0.012956749679418067
0                         0                        33.80661119440766        -0.5024090595542579      -0.21834367598244597     -2.022078777978109       0.036552518097551
0                         0                        33.873355932235185       -0.5024121712944649      -0.22243076984705823     -2.0400416718051027      0.056690494258731405
0                         0                        35.93305720234538        -0.5024583890706527      0.14764208183524374      -1.1727107096770624      0.8645891334079181
0                         0                        36.35760269186613        -0.5028766809243465      0.9883285289828336       0.021983398246732122     -1.1204730028754604
0                         0                        35.81538499865266        -0.5024924504261147      0.218714141607677        -2.2270944181981918      0.006506484884702957
0                         0                        35.55238704741016        -0.5025031368020487      0.5541886131787237       -1.9881319994198492      -0.08777233417156793
0                         0                        35.56908074117936        -0.502501721507715       0.5328945001662078       -2.0033000470133544      -0.0817880224048082
0                         0                        35.48197433060004        -0.5025102057471691      -0.505346213069763       -2.599912147484048       0.1158645953759816
0                         0                        35.58038867144999        -0.5025008195735846      0.5184703500381147       -2.0135745390999915      -0.07773438507842911
0                         0                        35.150180172504996       -0.5024755211461073      -0.44921445826399076     -2.4828243297998895      0.09320841097910204
0                         0                        35.269840823440525       -0.5024871633922826      -0.46945822131492854     -2.5250517293453356      0.10137930159458364
0                         0                        34.01515699361959        -0.5024137117205837      -0.25719527642567974     -2.0822826572165027      0.015704652072614067
0                         0                        34.326410569073246       -0.5024219074782881      -0.30985204856458837     -2.192121848194347       0.0369582462894531
0                         0                        34.53061155744841        -0.502430878040306       -0.3443980450231324      -2.2641829364156307      0.05090187710331029
0                         0                        34.724622216011966       -0.5024420386537991      -0.37722007775187316     -2.3326479291361366      0.06414967290719353
0                         0                        35.13404949255855        -0.5024740265147511      -0.4464855272399577      -2.477131926643793       0.09210694595812186
0                         0                        36.40507410516791        -0.5028225541625111      1.807626070332077        0.5548612312085766       0.2453046576389113
0                         0                        36.60174771577309        -0.5028740515035964      -1.2105500485394565      -2.365474584697303       -0.39178218626577177
0                         0                        37.59818589904111        -0.5026792316450726      -0.32015588710110165     -2.2000800714265267      0.23808539700378617
0                         0                        37.6049161933325         -0.5026808400275405      -0.3200847751054994      -2.1978342178016703      0.23986769040465106
0                         0                        39.04485261742588        -0.5033007718209863      -0.3048704697433209      -1.717337184890539       0.621186704877001
0                         0                        39.04684924328212        -0.5033020126262706      -0.30484937348175123     -1.716670924364223       0.6217154444734909
0                         0                        39.07505757991343        -0.5033196555434444      -0.30455132542896024     -1.7072579934682324      0.6291854792223539
0                         0                        37.804701787120514       -0.5027340471181778      -0.31797384924801264     -2.131167118180201       0.2927742246476299
0                         0                        37.90929815868892        -0.5027661188394517      -0.3168686885546279      -2.0962640173551677      0.3204730762472927
0                         0                        37.586538167305854       -0.502676476454024       -0.32027895652598204     -2.2039668406236217      0.2350008847213516
0                         0                        39.62833687274601        -0.5037393751044018      -0.20813203038778738     -1.9966023070374153      0.8436210802012454
0                         0                        39.75570300443167        -0.5038493165732729      -0.2083879923042673      -1.9847571653312919      0.8827635938999947
0                         0                        40.22278540158947        -0.5042951635944073      -0.20932666653342835     -1.9413181669920583      1.0263086547982994
0                         0                        40.293929089151526       -0.5043689567221774      -0.46814581876948225     -1.7497065313932154      0.49871733981497357
0                         0                        37.407461499976904       -0.5026843971944566      -1.1960904694274295      -2.146707716246435       -0.07899121455797786
0                         0                        41.15915440051696        -0.5044792268009476      -0.374765994860792       -1.8383254785358076      -0.2830386554375579
0                         0                        41.22112887584763        -0.5044599111733044      -0.3721027430470967      -1.8464302088307747      -0.34030272955721586
0                         0                        40.70073045254944        -0.5045118886146793      -0.3944660149796526      -1.7783749514977103      0.14054254947971856
0                         0                        40.94192766089267        -0.5045189098902473      -0.3841009590569726      -1.8099175875759812      -0.08232234356434276
0                         0                        40.53475673322208        -0.5044758354795392      -0.40159846437383706     -1.7566696893876212      0.29390135267718165
0                         0                        41.24372743102857        -0.504451984883748       -0.371131607063262       -1.849385541551392       -0.36118367016984365
0                         0                        41.4445835076705         -0.5044362387436462      -0.5120056464179541      -1.7624490799390218      -0.12251430682465525
0                         0                        42.01924009357579        -0.5042932981703754      -0.32384154246741303     -1.5579149180036092      -0.37496741278608425
0                         0                        41.34136387029187        -0.5044465443504368      -0.545803624295246       -1.799187442544361       -0.07716875838481485
0                         0                        42.64873148076288        -0.503970218804949       -0.11772246940751785     -1.3338637255490637      -0.6515100641176375
0                         0                        42.778743798387275       -0.503881801587954       -0.07515156384697264     -1.287589200765379       -0.708625938541644
0                         0                        42.50546166325957        -0.5040590518286758      -0.16463437731013997     -1.384856914824889       -0.5885700207832478
0                         0                        43.73898983690363        -0.5029988079340781      0.23926897851032436      -0.9458144372682806      -1.1304728308534209
0                         0                        44.05373553049718        -0.502621236326692       0.34232851504016537      -0.8337888410409935      -1.2687441565191477
0                         0                        42.20694125620145        -0.5042151775040666      -0.26238114691609926     -1.4911075395907627      -0.45742664610851236
0                         0                        45.45873958023149        -0.5004050374489766      -0.4721890861831355      -0.5573816833127125      -2.1605834367026233
0                         0                        49.41667989822676        -0.4816327082850645      0.49233092683079027      -1.495363325798623       -6.701848084236744
0                         0                        49.66930519199684        -0.4799080658909815      0.6094985614301232       -1.518312499863569       -6.951910558417069
0                         0                        47.84241548461212        -0.49095660591312174     -0.2378130537040799      -1.3523528318252325      -5.1435541841773755
0                         0                        48.36852602182379        -0.488113535703283       0.0061970620801490295    -1.4001461549548146      -5.664327463306186
0                         0                        49.19265277128538        -0.4831092645528212      0.38842712464982476      -1.4750120875884267      -6.48009365572932
0                         0                        47.43770973922912        -0.49295716926046257     -0.42551561581744135     -1.315588252723721       -4.742954076028184
0                         0                        47.355088175386456       -0.4933456610077096      -0.4638355047638303      -1.308082683420455       -4.661170687014305
0                         0                        46.913632801027646       -0.4953069069530732      -0.6685825481927417      -1.2679796673018089      -4.224193765562944
0                         0                        49.823419242619956       -0.47882492369960605     0.6873627645493503       -1.5056398469627261      -6.955117444610352
0                         0                        49.8580832591867         -0.47858409725346523     0.6952548904074591       -1.505546536121571       -6.939778184519753
0                         0                        50.09913544716962        -0.47692410488799064     0.7501364186999568       -1.5048976562556824      -6.833109581942935
0                         0                        50.27981702299804        -0.47569671097499455     0.7912730750345474       -1.5044112859071337      -6.753155728935951
0                         0                        50.805142372430744       -0.4722101664419685      0.9108764616244298       -1.5029971811643001      -6.520692703434733
0                         0                        50.883437058424335       -0.4716435328107211      1.0690586843767171       -1.0896900739158468      -7.223286146057997
0                         0                        51.47874471982199        -0.46740639581923565     1.3781286129944874       -1.161220064758723       -7.011830470911436
0                         0                        52.890166164917076       -0.457863550752534       2.1109058869522954       -1.3308113023487351      -6.5104878980840475
0                         0                        53.03951852975716        -0.45689515560203        2.1884461702934317       -1.348756936148149       -6.457437337525427
0                         0                        52.741864699058326       -0.4588329717099748      2.0339112059846087       -1.3129919407266044      -6.563165175098691
0                         0                        52.02506026831798        -0.46362873102614216     1.6617629730496333       -1.2268633425381097      -6.817776991271874
0                         0                        52.07019236151794        -0.4633213922381274      1.6851945089228266       -1.2322862497551341      -6.801745890284566
0                         0                        53.33524235060513        -0.4550010693134119      2.341979118257683        -1.3842900286463333      -6.352395047211957
0                         0                        54.60029233969233        -0.44724919766782134     1.8731777331840647       -0.8902256470783279      -3.9693510011986177
0                         0                        56.642362253049015       -0.43613854882912395     3.699987908229513        -0.603736596839898       -4.597252954509855
0                         0                        56.80890912839953        -0.43538434981991125     3.7478149437927053       -0.5938706985590763      -4.459644782243345
0                         0                        56.581601024525405       -0.4364194087806534      3.6825391903754365       -0.6073359684808395      -4.6474564878046465
0                         0                        57.159422655561826       -0.4338719399879536      3.8484714280030126       -0.5731069898570746      -4.170035471194851
0                         0                        57.209562766934894       -0.43366389254502696     3.8628700943528047       -0.5701367916018132      -4.12860756047138
0                         0                        57.04395783733023        -0.43435894016211546     3.8153135560451084       -0.5799468909317369      -4.265437456758974
0                         0                        55.82212508851129        -0.4401873301248956      3.4644415375390416       -0.6523257788007513      -5.2749680830562795
0                         0                        55.90492755331361        -0.43975338222903276     3.488219806692989        -0.6474207291357317      -5.206553134912525
0                         0                        57.78779008893432        -0.431414744700389       4.0289188336925275       -0.5358837806702521      -3.6508513445862434
0                         0                        56.45166487789601        -0.43703025626385367     3.645225607081109        -0.6150331216272917      -4.754815305623396
0                         0                        57.943685658463394       -0.43085563341834787     4.07368714851276         -0.5266488440906869      -3.522043738065719
0                         0                        58.26579058614919        -0.42976402777948125     4.166185574551152        -0.507568003062655       -3.2559068304615977
0                         0                        58.66057557890623        -0.4282683048789179      4.3621408510729225       -0.6524787132899164      -3.530721180378876
0                         0                        59.04334811856835        -0.4270125852486259      4.620718756978107        -0.9893444140098246      -3.030458111116914
0                         0                        58.621499206684575       -0.42840727048303734     4.3357432246696845       -0.6180888651528562      -3.581791891774305
0                         0                        58.37881211940273        -0.42931501274065764     4.171798551744814        -0.4045078287884536      -3.8989708285418843
0                         0                        58.31935317284774        -0.4295491517053471      4.131631694683705        -0.3521799378874917      -3.976680465510576
0                         0                        59.132484730541464       -0.4267476525424689      4.4428074761084755       -0.44702644424445026     -3.6101422446121063
0                         0                        59.60251096612506        -0.4252994160643403      4.596104076322337        -1.1416035697920037      -2.5522221873658424
0                         0                        59.74102182167724        -0.4249674963679518      4.641278667954349        -1.3462867653739252      -2.2404663721759874
0                         0                        59.453979495218995       -0.42570332915024706     4.547661313363818        -0.9221124982198958      -2.886532083937169
0                         0                        59.38205500542384        -0.4259167632581645      4.524203516919711        -0.8158267175625333      -3.0484174311817824
0                         0                        60.124374532927284       -0.4238807267493218      4.806252303803774        -0.9009158846395895      -2.8235901998718362
0                         0                        60.202711532856725       -0.4236597163365912      4.783267713227993        -0.9023677696495698      -2.818964734056436
0                         0                        61.933109816040236       -0.41887018428099554     4.275557485521901        -0.9344386854483133      -2.7167920938851378
0                         0                        61.97227831600497        -0.41876381690310155     4.264065190233907        -0.935164627953256       -2.7144793609774585
0                         0                        61.02546431103025        -0.42136038995287506     4.541866641340775        -0.917616533664404       -2.7703846907385614
0                         0                        61.07462958083589        -0.4212242546054673      4.527441228087149        -0.9185277546494959      -2.7674816911981477