% Model:              AluminaWithRodsOriginalRydberg.mph
% Version:            COMSOL 5.5.0.292
% Date:               Mar 10 2026, 10:24
% Dimension:          3
% Nodes:              585
% Expressions:        4
% Description:        Electric potential, Electric field, x component, Electric field, y component, Electric field, z component
% Length unit:        mm
% x                       y                        z                        V (V) @ Length=0.167     es.Ex (V/m) @ Length=0.167 es.Ey (V/m) @ Length=0.167 es.Ez (V/m) @ Length=0.167
0                         0                        214.18015462026577       0.9999837316711396       -1.4016869528177267E-5   -1.3956565287287503E-4   -2.1655540615483915E-4
0                         0                        214.45967073467457       0.9999837900373979       -1.4108370805843151E-5   -1.3820226930505441E-4   -2.0106816208453893E-4
0                         0                        214.83610506325525       0.9999838618006692       -1.423159876878799E-5    -1.3636615244116967E-4   -1.802109376711769E-4
0                         0                        215                      0.9999838905921657       -1.4285250923506965E-5   -1.3556672912429235E-4   -1.7112995524115604E-4
0                         0                        214.15188560712699       0.9999837251711691       -2.0918840718309184E-5   -1.3754901624452032E-4   -2.3199285311648055E-4
0                         0                        214.00843868765222       0.9999836903929346       -1.9464459754203745E-5   -1.3657426728741484E-4   -2.5290057001825517E-4
0                         0                        213.76005122884013       0.999983623079414        -1.6946106200066424E-5   -1.348864278156725E-4    -2.891036107683931E-4
0                         0                        213.5310999898195        0.9999835530687132       -3.099969400466307E-5    -1.715120747292076E-4    -2.887620843772254E-4
0                         0                        210.83030745007179       0.9999820592692323       -6.614022333661929E-5    -1.6467388822505313E-4   -8.325859656110879E-4
0                         0                        210.83208818335805       0.999982060751522        -7.447302056107219E-5    -1.5521731671697125E-4   -8.170627868651081E-4
0                         0                        210.83024577509147       0.9999820592178826       -6.614305742203008E-5    -1.6467265526287633E-4   -8.325985822352777E-4
0                         0                        211.8835166789111        0.9999828116399417       -5.753752796522349E-5    -1.6156511108533778E-4   -6.112576802834724E-4
0                         0                        212.03571429518394       0.9999829024048484       -5.5086061706788314E-5   -1.6248397474782905E-4   -5.81466736868208E-4
0                         0                        212.93783711326418       0.9999833473107335       -4.055545488768075E-5    -1.6793036570561526E-4   -4.048865096386578E-4
0                         0                        213.01904950886652       0.9999833795470451       -3.924735628402232E-5    -1.684206696381807E-4    -3.889901116274075E-4
0                         0                        213.26657038011706       0.9999834698340995       -3.526050619484522E-5    -1.6991502857877094E-4   -3.4054073096356774E-4
0                         0                        211.71672015734336       0.9999827069614579       -6.022414086714889E-5    -1.6055810979764829E-4   -6.439061923160239E-4
0                         0                        211.86323228634302       0.9999827992006821       -5.786425128917472E-5    -1.614426480784914E-4    -6.15228118142852E-4
0                         0                        212.6239100735814        0.999983210560874        -4.5611917499854826E-5   -1.6603509229184965E-4   -4.6633413841590254E-4
0                         0                        212.35042384422144       0.9999830757048037       -5.001699506124169E-5    -1.6438397227602763E-4   -5.198659408947037E-4
0                         0                        210.93990959405033       0.9999821477106092       -7.273632718352019E-5    -1.5586826702929102E-4   -7.959579784113657E-4
0                         0                        210.82703627347786       0.999982056155011        -6.546460565459711E-5    -1.577137297772424E-4    -9.551146769126717E-4
0                         0                        210.2272385369152        0.9999814645784775       6.931870555604291E-5     -3.014795076978771E-4    -0.0011524936285507437
0                         0                        210.74563922034537       0.9999819879280243       9.688246132100176E-5     -3.213777390840278E-4    -8.657767892827906E-4
0                         0                        208.0979157580684        0.9999777715389059       -1.477309419044559E-4    -3.56909542546191E-4     -0.002316252029075372
0                         0                        208.65382275206758       0.9999789747103945       -9.106531166480636E-5    -3.4243830137370423E-4   -0.0020124270567034586
0                         0                        209.46066989598108       0.9999804205322714       -8.820435425604956E-6    -3.214346442916849E-4    -0.0015714534518345147
0                         0                        209.74832424952646       0.999980849955997        2.0501223104929522E-5    -3.139464932928604E-4    -0.0014142390672322591
0                         0                        208.70479593544252       0.9999790765801815       -8.586942882971016E-5    -3.4111137912873346E-4   -0.0019845682130377185
0                         0                        209.763839401991         0.9999808718323501       2.2082739548068275E-5    -3.135426062499391E-4    -0.0014057594279979213
0                         0                        207.6457524688941        0.9999766683443508       -1.938215972359103E-4    -3.686801520927929E-4    -0.0025633769983866017
0                         0                        207.8022024591892        0.9999770626959463       -1.77874078417517E-4     -3.6460748239619534E-4   -0.002477870943474514
0                         0                        208.92231658415687       0.9999794953349317       -6.369675463702151E-5    -3.3544893216230776E-4   -0.0018656846485320955
0                         0                        207.58096798333042       0.9999764636634617       -8.268054432392091E-5    -1.5483298778917742E-4   -0.0031881540132872033
0                         0                        210.82541083688318       0.9999820548290957       6.842077692681414E-5     -3.311192543975494E-4    -8.161864018774168E-4
0                         0                        206.7714343669718        0.9999738549698782       1.377126556505459E-4     -2.7674264724453224E-4   -0.003438125314131568
0                         0                        204.69850933293242       0.9999633793596658       -3.463865055550741E-4    -1.3393591530075355E-4   -0.0066689552990055745
0                         0                        204.8115701639409        0.999964123395791        -3.199829201605553E-4    -1.417248354584899E-4    -0.006492740377090911
0                         0                        205.73497184995207       0.9999694543233164       -1.043369250055548E-4    -2.0533928133659174E-4   -0.005053540306597881
0                         0                        205.961093511969         0.9999705571922386       -5.152975377598068E-5    -2.2091712156679932E-4   -0.0047011104628751355
0                         0                        204.98063280982325       0.9999651988017805       -2.8050098805465495E-4   -1.533717998540851E-4    -0.00622924186333762
0                         0                        206.29921880373382       0.9999720576610738       2.7434110045021498E-5    -2.442110503011463E-4    -0.0041741134353472376
0                         0                        205.16922010064278       0.999966345841959        -2.3645938149741141E-4   -1.6636384444268515E-4   -0.005935312529750547
0                         0                        206.34993876843683       0.999972267367218        3.927896301547662E-5     -2.477052202749519E-4    -0.00409506205631871
0                         0                        206.67639338537293       0.999973521167889        1.1551732371373191E-4    -2.701951397980906E-4    -0.003586254768130459
0                         0                        203.66204681591262       0.9999556300789266       -5.279895347030106E-4    5.612062155364583E-4     -0.008688812300359672
0                         0                        205.4155834411893        0.999967760786302        -1.7892508328998247E-4   -1.8333616293375599E-4   -0.005551334308336209
0                         0                        200.22943962503462       0.9999084972753904       2.4231195175161702E-4    -4.5080470573566345E-4   -0.020029148317220802
0                         0                        200.6990453283152        0.9999174984439757       -8.272405855791476E-5    -5.415134955057965E-4    -0.01830585708253274
0                         0                        201.94574322047362       0.9999374685259091       -9.456218159868968E-4    -7.823250024046047E-4    -0.013730905085985512
0                         0                        202.18054607211394       0.9999405914231551       -0.001108139820814813    -8.27679397019665E-4     -0.01286925946886086
0                         0                        200.95699792290162       0.9999220983987042       -2.6126508001311777E-4   -5.913394826109197E-4    -0.01735925987967235
0                         0                        202.3095223694072        0.99994222073044         -0.0011974103319118967   -8.525923907996003E-4    -0.012395960867294775
0                         0                        199.90548928056012       0.9999018162720411       4.665330939985779E-4     -3.88230628175279E-4     -0.021217934537448357
0                         0                        199.60447347639607       0.9998952630837187       -4.008815092220175E-4    5.715788450686432E-4     -0.023624209585108247
0                         0                        201.49335696429694       0.9999308813495464       -6.325041887009775E-4    -6.949423118385312E-4    -0.015391006878857638
0                         0                        199.13239347755214       0.9998836362580446       3.0717833595872435E-5    4.3724494078389853E-4    -0.025633652230681037
0                         0                        198.910597383754         0.9998773619810821       -0.002516042979436861    -0.0012964611934762615   -0.02361607093581597
0                         0                        196.13165629217724       0.9997719584309347       0.0020016608280357673    -1.9182974508780148E-4   -0.052242716043465975
0                         0                        196.25787928425459       0.9997784706016312       0.0017964610510858847    -2.4200349182024183E-4   -0.05094245789481988
0                         0                        197.732023336216         0.9998423742656375       -6.000439400395408E-4    -8.279770065087177E-4    -0.03575689000331295
0                         0                        197.9844693203708        0.999851072703977        -0.00101044349383983     -9.283245002791318E-4    -0.03315637370616287
0                         0                        195.99105862667705       0.9997645114107132       0.0022302294041445236    -1.359420534470246E-4    -0.05369105170120747
0                         0                        197.45082800521544       0.9998319123298927       -1.4290678768702492E-4   -7.16201623276902E-4     -0.03865356131851172
0                         0                        194.53128924813848       0.9996751592235447       -5.906064041028003E-5    0.003911924623480445     -0.07970436662108682
0                         0                        196.8498382792314        0.9998068215842925       8.341177279476142E-4     -4.773076959025957E-4    -0.044844523642666445
0                         0                        198.52604865971375       0.9998675187863687       -0.0018908849867784738   -0.0011436027483000544   -0.027577414298946223
0                         0                        189.95699964853566       0.999070672798368        -0.01409261503919887     0.015160117821324093     -0.21832858327829285
0                         0                        191.48176284840326       0.9993386409472051       -0.008051541295259312    -0.0033195757256052616   -0.15394640424682393
0                         0                        193.00652604827084       0.9995401364222635       0.0030036505241923805    -0.002154527208432455    -0.11035099626212741
0                         0                        188.43223644866808       0.9987000903619895       9.76616481267456E-4      -2.3741517375697185E-4   -0.30482408989486603
0                         0                        186.90747324880044       0.9981411036889585       -0.025445169929838585    -5.272736137555967E-4    -0.4283870383373779
0                         0                        185.38271004893286       0.9973937127792752       0.02235890878932878      0.03182721174368908      -0.5566073862333951
0                         0                        182.6187290667962        0.995096619980245        0.005031502099619445     -0.004035490032183731    -1.1193989264090582
0                         0                        182.64277350503212       0.9951234749919052       0.004724830751328568     -0.004229108968509365    -1.1143826572294415
0                         0                        182.23256222357313       0.9946487896520316       0.00995681186617503      -9.258639012941217E-4    -1.199962956012321
0                         0                        182.2637567847645        0.9946861204633646       0.00955894529714385      -0.0011770595291693553   -1.1934549929507696
0                         0                        182.45195231974387       0.9949070288713602       0.007158632264847142     -0.0026925126642254327   -1.1541927131425425
0                         0                        183.8534245438038        0.9963197152454779       -0.010716244757205118    -0.013977931715345449    -0.8618106722479624
0                         0                        183.91733118433842       0.9963743646520932       -0.011531332863057742    -0.014492542855023771    -0.8484781540108699
0                         0                        180.98657345514945       0.992991705437077        -0.004585142890164207    -0.009588399754591137    -1.5297215896381238
0                         0                        181.14398296350635       0.9932189240945594       0.02384094033357087      0.00783997027606631      -1.427067725032785
0                         0                        180.17248984033003       0.9915760233565379       -0.019912991807018443    -0.0016224929022428114   -1.9482554996145083
0                         0                        180.2703451959257        0.9917642090855757       -0.018070537200230774    -0.0025800194184739667   -1.897946435724673
0                         0                        180.04372947949713       0.9913209034464997       -0.022337336580676492    -3.6255716338473576E-4   -2.014453340092159
0                         0                        180.07128122935407       0.991376210028342        -0.02181858266993686     -6.321543756939718E-4    -2.0002885277998708
0                         0                        179.34688274492927       0.9897923118909114       -0.03545780881614746     0.006456172604600852     -2.372713822386441
0                         0                        180.28783871133675       0.9917973321750236       -0.017741163218886413    -0.0027511955872796534   -1.8889527288485992
0                         0                        180.1648075199425        0.9915610410625139       -0.020057637202057776    -0.0015473204660452211   -1.952205108144799
0                         0                        179.34304158473554       0.989783194124256        -0.03553013151366713     0.0064937588227280685    -2.374688626651416
0                         0                        180.8983001935577        0.9928546688813427       -0.006247182504580451    -0.00872463518959421     -1.5751043398222564
0                         0                        178.52127564952863       0.9876581646223026       -0.13477735862795726     0.10260252158670369      -2.786973605967219
0                         0                        176.0392460625612        0.9784191960178351       -0.0488777305009549      -0.060455108428655535    -4.834384750491822
0                         0                        176.28329714609305       0.9795723473679573       -0.061547292994902136    -0.05574883777803663     -4.615697039221743
0                         0                        176.3121125618456        0.9797049785795837       -0.06304320403670616     -0.055193162533768714    -4.589876308458933
0                         0                        176.41745257704943       0.9801835045714193       -0.0685117800680004      -0.05316179018855394     -4.495483911192309
0                         0                        176.6956392592388        0.9813994157331771       -0.08295344328013243     -0.0477972501141295      -4.246208194184675
0                         0                        177.469364113289         0.9844165952777215       -0.12312026102085838     -0.03287677313988979     -3.5528938477109477
0                         0                        176.53643375549487       0.9807120399031969       -0.07468851755299966     -0.05086736223546495     -4.3888680288862645
0                         0                        175.3655410408098        0.9749588925033957       -0.01390329911512822     -0.07344680723690544     -5.438073974673898
0                         0                        176.4429365318855        0.9802977763109932       -0.06983474308768933     -0.052670358694115293    -4.472648414309546
0                         0                        174.94539081080063       0.972454209438985        -0.08648786516084783     0.05413758814005121      -6.2189477115475
0                         0                        175.11161730186427       0.9734710255483093       -0.10335992100783642     0.061367163021436966     -6.0151565256091
0                         0                        174.36723585323398       0.9686537931803909       -0.02780490392080992     0.028992290708337976     -6.927757021692955
0                         0                        174.17612444883818       0.9673074311327173       -0.00840701934015442     0.020680413341864323     -7.162056738296258
0                         0                        174.22271963268258       0.9676398176082778       -0.013136449282171725    0.02270694574691845      -7.1049317414687465
0                         0                        173.33736338260024       0.9605971155673381       0.07064306655353647      -0.028135038493971365    -8.933418761338412
0                         0                        173.48931105202473       0.9619288414966946       0.05766771576278096      -0.010798588857461766    -8.595325633362759
0                         0                        172.49860231636237       0.9523214234418973       0.1422678509633286       -0.12383337356322954     -10.799714924896122
0                         0                        172.57457615107458       0.9531354976406851       0.13578017556778832      -0.11516514874526251     -10.63066836090863
0                         0                        173.81993871070608       0.9646490778996916       0.029434246511221396     0.02692433097886493      -7.859658283266616
0                         0                        173.03103306544955       0.9577561405440554       0.09680169957478668      -0.06308575629972779     -9.615022997267246
0                         0                        174.056862812268         0.9664487706147822       0.00920245657871277      0.053956155618998025     -7.332487245413514
0                         0                        173.05618340911272       0.9579972579563483       0.09465402246455668      -0.06021623110129326     -9.559061899667064
0                         0                        171.6598412501244        0.9424803547563947       -0.25377642431121217     0.0011042315261793334    -12.417652422978392
0                         0                        167.6960724701034        0.8630763301745298       -0.4027271781482966      0.3181938464041423       -29.856298771127626
0                         0                        168.02319762480352       0.8725844235455784       0.042508587585246005     0.3145286847994555       -28.274928585963778
0                         0                        167.64299848757713       0.8614849289713884       -0.2738079212105049      -0.1621736303172696      -29.210164922373863
0                         0                        168.1951432005984        0.8773747110052132       0.27653620363236087      0.3126021795661984       -27.443718869663968
0                         0                        168.39036705727705       0.8826402593355852       -0.5326653098154637      0.8456267769112173       -24.54321701244352
0                         0                        170.33914950647133       0.9232207564454729       0.13073770636620452      0.46405767512604257      -17.10380944416869
0                         0                        170.5700165191753        0.9270677272185316       0.20932927651725208      0.418854210416157        -16.22248284853716
0                         0                        169.01845776281831       0.8973026349205384       -0.31885115695089894     0.7226474230836004       -22.145503121752924
0                         0                        169.48019178822616       0.907121028744927        -0.16166801664925856     0.6322404936639003       -20.38284993049027
0                         0                        168.91767251314894       0.8950513065942785       -0.35316039380033004     0.7423810455849207       -22.53024722157329
0                         0                        169.9588613718205        0.9164403415917831       0.001280313289868218     0.5385176036926396       -18.555545849233397
0                         0                        169.85120860759235       0.9144206652674941       -0.035366757561106965    0.5595958767280251       -18.966506441204785
0                         0                        168.94272442682535       0.8956145344855565       -0.34463224069588705     0.7374759130476605       -22.434612433667024
0                         0                        164.14434097457791       0.7145096026633629       -0.544090762670578       -1.2121841550724994      -56.588251616646914
0                         0                        164.32272197178983       0.7244586967409884       -1.1090588130131351      0.4905864930129269       -53.52545567687676
0                         0                        167.09747055932678       0.8444516924964824       -0.8400727042248946      -0.12102920410606544     -33.23663419765012
0                         0                        167.17023166724204       0.8468504890082543       -0.7645457681106791      -0.12651694154490656     -32.69959411173659
0                         0                        166.43877266808886       0.8209575755290281       -1.5238093181325212      -0.07134935202529391     -38.09839595797857
0                         0                        165.52811995184248       0.7835384267196837       -1.2327414824659897      0.45174827040831644      -44.499812253493516
0                         0                        165.58942601576103       0.7862524640663364       -1.2390319340549922      0.4497729737866365       -44.04077160320503
0                         0                        165.21405029087228       0.7691930939517249       -1.2005156328247828      0.4618676729688418       -46.85146773734972
0                         0                        165.2146229572008        0.7692199229819581       -1.2005743925883794      0.461849221517467        -46.84717979082299
0                         0                        165.19674253315043       0.7683810785990759       -1.1987397300003133      0.4624253332257027       -46.98106281900799
0                         0                        164.56132638362647       0.7370169618531904       -1.1335413748620908      0.48289859954104486      -51.73886039787226
0                         0                        163.05562169213854       0.6474112054214449       -0.6897102218940745      -0.2007675705198153      -66.87214793633086
0                         0                        163.07701892107215       0.6488398798311624       -0.6855214576837341      -0.22125277635171514     -66.66611668197645
0                         0                        163.59998133335827       0.6823870539610325       -0.5831452928684087      -0.7219247414625443      -61.63057670070606
0                         0                        163.6427757912255        0.6850156840831494       -0.5747677644477136      -0.7628951531267738      -61.21851419199703
0                         0                        163.46541211194327       0.6740062911855708       -0.6094888320347422      -0.5930913206538246      -62.92632698555239
0                         0                        163.7787411323881        0.6932502777906164       -0.5481509180950468      -0.8930651862831702      -59.909320843858865
0                         0                        163.90113438871919       0.7005106538497556       -0.5241909701369707      -1.010241623296455       -58.73081141141441
0                         0                        162.51126205091882       0.609582057044605        -2.075605756942111       1.4236778568565427       -71.30964573358051
0                         0                        163.58374852631073       0.681385348077492        -0.5863230595503524      -0.7063838321872957      -61.786880379470944
0                         0                        161.44783304970537       0.5284535864390486       -1.504552172695579       0.5155077276850619       -81.0949621618881
0                         0                        161.80230938344323       0.5566320241986162       -1.8280678253728335      0.8359834861399946       -77.89132311382005
0                         0                        160.38440404849192       0.4371045878140876       -5.1809110226310295      4.617938625384987        -88.81307560254827
0                         0                        161.09335671596756       0.49913953445510734      -1.181036520018285       0.19503196923017185      -84.29860120995578
0                         0                        159.43048623308832       0.3512746271975179       -4.666194981180425       0.5551428169900419       -91.13945118877673
0                         0                        159.76156837065332       0.38131560876822956      -4.844840651164461       1.9652424073456025       -90.33202167081376
0                         0                        159.2855629702948        0.33804079023746164      -3.9212316773334877      -0.2317693931069087      -92.21162079669006
0                         0                        158.67666984920493       0.28197928000103156      -2.99794229593142        -0.8456184456975251      -93.76019221244947
0                         0                        159.06048907841546       0.3172980458770376       -3.968209697499212       -0.8798201082048962      -92.10779703738419
0                         0                        159.1387699602078        0.3245097388099078       -3.951870704057029       -0.6544275448984465      -92.14390702491578
0                         0                        158.46435613771473       0.2620870073453363       -3.063172378356139       -0.9813854905381305      -93.62546946784835
0                         0                        158.33877355426668       0.25033428271817004      -3.1017556719735384      -1.0616910728696993      -93.54578158430348
0                         0                        158.19218914685786       0.23662874699670877      -3.1467914490335835      -1.155426572446821       -93.45276708447105
0                         0                        156.83853987612207       0.11470114393567668      -3.4176977002198257      1.2388521830606365       -86.8873272488999
0                         0                        156.9677815495746        0.12597938283579097      -3.3557474117543933      1.337597977925693        -87.64211977589613
0                         0                        157.3740324646112        0.1620660039306243       -3.161016403531306       1.64798988518222         -90.01469161409385
0                         0                        157.9752198242372        0.21723709291324625      -2.872845186340456       2.107321013472749        -93.52572419552357
0                         0                        157.18525701843646       0.1451775008890327       -3.251503419315789       1.5037579127420138       -88.91221211002424
0                         0                        156.79849476504722       0.11122641394012524      -3.43689279508704        1.2082561205220301       -86.65345724571445
0                         0                        157.99659830881023       0.21913579216314616      -2.390272280022138       -1.4148371425774309      -88.87493405516793
0                         0                        158.02869005270148       0.22199090056180162      -2.4049054418869167      -1.2447770859378693      -89.05920429090114
0                         0                        158.14087958769937       0.2320185469869681       -2.4560615158828947      -0.650264094036591       -89.70339465122973
0                         0                        156.18885753897368       0.05909464081340098      -4.473232151078426       0.5134577467680381       -83.51319420586803