% Model:              AluminaWithRodsOriginalRydberg.mph
% Version:            COMSOL 5.5.0.292
% Date:               Mar 10 2026, 10:26
% Dimension:          3
% Nodes:              524
% Expressions:        4
% Description:        Electric potential, Electric field, x component, Electric field, y component, Electric field, z component
% Length unit:        mm
% x                       y                        z                        V (V) @ Length=0.178     es.Ex (V/m) @ Length=0.178 es.Ey (V/m) @ Length=0.178 es.Ez (V/m) @ Length=0.178
0                         0                        0                        -0.42673017360867455     1.4055825529755719       -2.1638104985397106      9.409091992870046
0                         0                        0.07996862794867653      -0.4274748416105299      1.422968722974936        -2.180905543755415       9.214911468416894
0                         0                        1.0930216180466075       -0.43556402859252386     1.8851099954533481       -2.5223657728175226      7.25253072675207
0                         0                        2.22389426490581         -0.44281540295191435     1.720040800944055        -3.5249084791022867      5.597032628703573
0                         0                        2.2478242800408808       -0.4429489272502977      1.7219744638062622       -3.5515623334533046      5.56253393486206
0                         0                        2.135247927833013        -0.44231358214534383     1.7128777411254923       -3.4261719532895825      5.724829574321056
0                         0                        2.2124321891293603       -0.4427511546384369      1.7191146088740439       -3.5121417300391613      5.613556924269901
0                         0                        1.6141347729397992       -0.4391345517567885      1.6707692364317097       -2.845742979363628       6.47609208234563
0                         0                        2.0426710153103818       -0.4417774172812122      1.7053970714880773       -3.3230574534152595      5.858293031986413
0                         0                        2.0594889228640367       -0.4418757376323251      1.706756041094808        -3.341789662980993       5.834047504331018
0                         0                        2.0680209386736585       -0.4419254613452174      1.7074454699153279       -3.351292837359658       5.821747328188099
0                         0                        2.3196859774156593       -0.4433449379669673      1.7277812422243315       -3.6316037042767917      5.4589345563129825
0                         0                        2.6563610827262276       -0.44510111975818945     1.7549862458192962       -4.006600927215487       4.973567066296511
0                         0                        2.9409953208953583       -0.44636337464406073     1.8882592164764844       -3.8461054451799015      4.164563758554494
0                         0                        3.353432877759082        -0.4479195831758962      2.1037778403783705       -3.932149652778257       3.3818320821607024
0                         0                        3.3951516924232257       -0.4480590176635339      2.1255779441216163       -3.940853182051967       3.302657338746032
0                         0                        3.4906739470166266       -0.4483658366146006      2.1754929543320003       -3.960781378618286       3.1213734250323406
0                         0                        3.7455651265331817       -0.4490997969923821      2.1922954751334127       -3.834805713671125       3.075043435030564
0                         0                        5.30930205609937         -0.4533704783357039      2.4995975248456155       -3.886318329477149       2.3871046572403145
0                         0                        5.665074208585013        -0.45419190172501955     2.5695130647437203       -3.8980381743302956      2.2305889063328195
0                         0                        4.549966562869283        -0.451431034602313       2.35037462866857         -3.8613043026345863      2.7211610584601704
0                         0                        4.705319667559097        -0.45184846662585276     2.3809042699385543       -3.866421944000585       2.652816170681678
0                         0                        4.440481902274743        -0.4511304724956522      2.3288589504386774       -3.8576976593745016      2.769326924580019
0                         0                        3.993775362587771        -0.44984950249627187     2.2410731901422105       -3.8429822542945082      2.965847672496637
0                         0                        4.8390294921319805       -0.4521992415838076      2.4071806226811283       -3.8708266125178312      2.5939928663546947
0                         0                        3.9296330298730093       -0.44965836111428403     2.22846808378203         -3.8408692778216618      2.9940659726071597
0                         0                        4.94050667035341         -0.45246020753159555     2.4271226885599084       -3.87416947332504        2.5493497523888227
0                         0                        6.624828749610895        -0.4561301022898824      0.21492276457473736      -1.972599625952114       1.058653567498851
0                         0                        9.678638442254496        -0.45709480010036996     2.6873368776262794       -3.88197130862342        -0.708760244304787
0                         0                        11.205543288576296       -0.45523031146988424     0.6252301651248331       -0.25395547633144133     -1.7598459154183672
0                         0                        8.151733595932695        -0.4573947303737029      2.5195290090047564       -4.581857205925772       0.3158997801372692
0                         0                        13.69184248205356        -0.44899997733401925     2.469864624781877        -3.676587696798606       -3.1135265107207024
0                         0                        13.764568251337524       -0.4487722510647536      2.4735638424270547       -3.727230466800151       -3.149075356755275
0                         0                        12.448692885314964       -0.4524928504811041      2.4066314548978767       -2.8109173886642793      -2.5058666117939827
0                         0                        12.48505576995693        -0.4524014067779244      2.408481063720515        -2.8362387736649453      -2.5236410348112717
0                         0                        13.66582453347252        -0.4490808194618166      2.4685412141746355       -3.6584700337078147      -3.100808762151681
0                         0                        12.435683911024421       -0.4525254078742165      2.405969749594277        -2.8018585571186776      -2.4995077375095205
0                         0                        14.332773972452632       -0.4469040209111293      2.5024657935572066       -4.122901931418681       -3.426818141668863
0                         0                        14.89596515592062        -0.4448965462326853      2.4988702599025743       -4.846239638749715       -4.031303734588505
0                         0                        13.000517674376988       -0.451035627750666       2.4347001851008656       -3.195181950577478       -2.775602286749279
0                         0                        14.949438940643835       -0.4446787072880828      2.3516469967065845       -4.3381898339256395      -1.839295906718121
0                         0                        14.993287173962944       -0.44459661904441644     2.3345709180631076       -4.381538634155476       -1.9049025456644415
0                         0                        17.248903360475254       -0.4358014967867719      1.6895473615052268       -3.3994782624546716      -3.5001083261166457
0                         0                        17.304122718084717       -0.43560877903186446     1.6674483681483068       -3.4173126110294163      -3.4799712420074087
0                         0                        17.813859184505894       -0.43388228768839077     1.4634499285985711       -3.581943606697341       -3.294083420376438
0                         0                        18.493872552379948       -0.4317265829555469      1.1913060364946002       -3.8015694039384575      -3.0460999780272857
0                         0                        16.36852425711556        -0.4390242426158375      2.0418783700329612       -3.11513978973575        -3.821160015594387
0                         0                        17.176528848994966       -0.4360557705119091      1.7185119115772522       -3.3761032664110004      -3.526501455050777
0                         0                        18.55559693164409        -0.431539259011473       1.1666037091518753       -3.8215046973393023      -3.0235906792841405
0                         0                        19.183982618724844       -0.42971127712762264     0.9151214079152155       -4.0244561597957755      -2.7944345285860237
0                         0                        19.259194111896235       -0.4295021349734223      0.8850214871643161       -4.048747423658893       -2.767006825158461
0                         0                        16.061332994051412       -0.44021527610399047     2.164817461968795        -3.015925378309092       -3.9331847940372313
0                         0                        15.212663241125501       -0.4436845776670056      2.6864244448336763       -2.6646347535294623      -4.326556052564655
0                         0                        15.143605223962773       -0.44398574492851445     2.5749896902054275       -3.533406473048398       -4.039060399722416
0                         0                        19.33853594971221        -0.4292364723763763      0.6142024504405583       -3.988198151892199       -3.3144157157679075
0                         0                        20.02856826894358        -0.42738529340792414     -0.07611479913921926     -3.4178582391843264      -2.30232648898113
0                         0                        20.47545645468207        -0.4264665108197873      -0.08650579148349635     -3.5395871416777425      -1.8095861435640828
0                         0                        19.86617066247357        -0.42777372518659657     -0.07233874879959501     -3.373622381012183       -2.481386610193997
0                         0                        19.87392075945071        -0.42775452731311114     -0.0725189531569157      -3.3757334477831478      -2.4728413284358304
0                         0                        19.77663758649716        -0.42800031069079075     -0.07025693608504469     -3.349234260172878       -2.580106066627973
0                         0                        20.654935704812324       -0.42615948662461567     -0.09067902222349034     -3.588475908120685       -1.6116917473222117
0                         0                        19.95843895026788        -0.4275494653641377      -0.074484160342422       -3.398755552500276       -2.379651300445996
0                         0                        19.618096582207503       -0.4284232204013819      -0.06657055901260378     -3.306048910753802       -2.7549138859202777
0                         0                        20.771304717731287       -0.4259794012337573      -0.0933848210361532      -3.62017393165074        -1.4833829008334085
0                         0                        20.993736511110306       -0.425676725859279       -0.09855677933782658     -3.6807626403069875      -1.238128892786385
0                         0                        19.989249693421986       -0.42747666989077815     -0.07520056817432419     -3.407148161812458       -2.345679276327232
0                         0                        21.147625319306947       -0.4252636687614262      0.8689306034805497       -3.2643324385184513      -2.0684356417748972
0                         0                        21.629092521031094       -0.4243026671275977      1.0740919971329888       -4.826783136339827       -0.34070211135826867
0                         0                        21.640806209870703       -0.4242989607159322      1.1125979966333475       -4.850401928478902       -0.2921321249238389
0                         0                        21.82723894807159        -0.4243165567951122      -0.23520479478580114     -3.8824163602458412      -1.3094838056517872
0                         0                        22.93577585387316        -0.4231908769868374      -0.4958444770347388      -3.3602344394184342      -0.7214450743584706
0                         0                        23.368224536199538       -0.4229284905294479      -0.5975220004086053      -3.156527298578399       -0.49204669062065376
0                         0                        22.865232890964208       -0.4232430897360846      -0.4792583847348375      -3.393464059181092       -0.7588655645501436
0                         0                        22.017103124248962       -0.42407749391870664     -0.2798457429494121      -3.792979878976027       -1.2087677278260252
0                         0                        22.24951722033112        -0.42381088610972345     -0.3344910468954865      -3.683500042549838       -1.0854804565772334
0                         0                        22.331593801500023       -0.42372358033699975     -0.353788928566388       -3.6448374535233725      -1.0419417990848672
0                         0                        22.35998608688436        -0.4236942110373329      -0.360464535126944       -3.631463123772953       -1.026880718674608
0                         0                        23.509608570930556       -0.42286422482188946     -0.6307642765065397      -3.0899276333405794      -0.4170475742418235
0                         0                        23.713362657679443       -0.4227902609702464      -0.6786710265202096      -2.9939482393861585      -0.30896340127417066
0                         0                        24.379891893909132       -0.4228652228423909      -1.0520541322534598      -3.363819759085775       0.44999003105370416
0                         0                        24.420033966862192       -0.4228841023655345      -1.0951806335377903      -3.415445881541462       0.3361069224669926
0                         0                        23.803431979945717       -0.42277409822838985     -0.7453978230309417      -3.0594532075630703      -0.13383755698263847
0                         0                        25.661252927674614       -0.4237179189708726      -0.8249817363367633      -3.006637749088874       1.0074378213102637
0                         0                        25.861314361466917       -0.423930292356326       -0.7814306945869376      -2.940745474070006       1.115643888420074
0                         0                        25.651437771922385       -0.4237080568644393      -0.8271183813155218      -3.0098704708080284      1.0021291549576592
0                         0                        24.935732346091932       -0.42312935217625425     -0.9829191085728213      -3.245595357195816       0.6150297131997926
0                         0                        25.359436561105582       -0.42343849225155        -0.8906836406573895      -3.106044049714491       0.8441961540045222
0                         0                        26.168233422784834       -0.424298179248547       -0.714617993108611       -2.8396585488514816      1.2816454206331187
0                         0                        26.298839155348986       -0.4244701824797789      -0.6861866477770207      -2.796642217887509       1.3522853855421957
0                         0                        24.49112411985362        -0.42290936297048276     -1.0797051360255736      -3.392031614117471       0.3745570411110659
0                         0                        24.484386973341444       -0.4229068517995008      -1.0811717342772376      -3.394250562079577       0.3709131597602582
0                         0                        27.238241749592365       -0.42597917305022137     -1.0711481380971257      -3.473457451097019       1.500319454928487
0                         0                        28.765172939199132       -0.4283001099870483      -1.412100485955121       -2.929572755647598       1.792075460846616
0                         0                        30.292104128805896       -0.43145192488081263     -1.8130195382255632      -2.3622298438065172      2.3362243803218696
0                         0                        31.819035318412666       -0.43543461773151454     -5.421998007459258       -3.2375317592051864      8.897294991694444
0                         0                        33.34596650801942        -0.4411196861185228      -2.2791986671431523      -3.2601873165493798      3.7148188145140146
0                         0                        34.87289769762618        -0.44677916315475363     -2.6882208461487096      -3.4130301479504306      3.6980588249668074
0                         0                        36.39982888723294        -0.45241304884020755     -3.707616167743872       -4.095399997283025       9.857418453203394
0                         0                        37.73589367813885        -0.457177982847013       -1.7188406958083533      -3.2155528010842573      3.1303234936492013
0                         0                        39.071958469044766       -0.4607776788482279      -0.7449399530955247      -2.7119247780132554      2.258181653281718
0                         0                        40.40802325995067        -0.4632121368438515      -4.6473265511889394      3.0728599611893657       -6.189592288825295
0                         0                        41.74408805085658        -0.46472302043640185     -1.445119337497303       -2.5752214250118186      0.9828998576296031
0                         0                        43.08015284176249        -0.46583857262938294     -1.52117778186971        -2.283387100761658       0.6870074710778682
0                         0                        44.4162176326684         -0.4665587934227946      -2.0647146907903533      -0.9581144107608708      0.8242168436107562
0                         0                        47.34899342051385        -0.4697788868754424      -1.2800678567025034      -3.020953028831837       1.1763051110524945
0                         0                        47.60880953808952        -0.47008631301088494     -1.4465178729116595      -2.9408893680804535      1.1901849921115755
0                         0                        47.68041111129837        -0.4701716690701378      -1.4923890957304202      -2.9188249783876223      1.1940100870635248
0                         0                        45.88260552659115        -0.468111403725077       -0.34063310958300974     -3.472827931607327       1.0979678248821187
0                         0                        45.99230099581933        -0.46823216723649075     -0.4109090139474034      -3.4390247137153196      1.1038279696638256
0                         0                        46.04831437198338        -0.46829408017339946     -0.44679372909698145     -3.421763906385216       1.1068203128876348
0                         0                        46.922745602419596       -0.469282342429862       -1.0069941271245106      -3.1523034662964875      1.153534125664514
0                         0                        46.993068792270336       -0.46936359472430356     -1.0520463594485179      -3.1306330169506342      1.157290926897403
0                         0                        47.16091619783942        -0.4695585955253941      -1.159577037831104       -3.0789099835111715      1.1662576609364859
0                         0                        45.66948161754398        -0.4678786137905851      -0.20409624479395916     -3.5385031503396647      1.0865823321881294
0                         0                        45.71560632616432        -0.4679287889113373      -0.233645829974094       -3.5242895863094503      1.0890464036072842
0                         0                        45.78856691525385        -0.4680083885675963      -0.28038770014713066     -3.501806408946976       1.0929440998241091
0                         0                        48.17600958729521        -0.47076997934062564     -2.4475893128476898      -2.369679249811611       -0.1765627115638324
0                         0                        48.518760925679935       -0.47023892277881973     -2.0607100813650803      -2.6407390798671884      -2.9222235065054747
0                         0                        48.66560165504017        -0.4704921204455548      -2.5069000543632143      -1.937560587914298       1.7414223149640113
0                         0                        49.271335129384575       -0.471589738655372       -2.7799467477928843      -1.8451060792005691      1.8826739462012991
0                         0                        50.549104016571995       -0.47418572559294986     -3.355927083024497       -1.6500772427267947      2.180638228024847
0                         0                        50.85197075374425        -0.4748568634831933      -3.492450429739378       -1.6038499883698378      2.251264043643472
0                         0                        49.377979839466356       -0.47179184192449053     -2.828019021644266       -1.8288286491176677      1.907542539237559
0                         0                        49.42408546740445        -0.4718800382215721      -2.8488020719298177      -1.8217914399150388      1.918293959509457
0                         0                        50.89814097421906        -0.4749610533858747      -3.513262596425747       -1.5968029202582201      2.2620305263176235
0                         0                        50.92834592275414        -0.4750294842761468      -3.5268780918078306      -1.59219266872703        2.26907405029751
0                         0                        49.823376076487925       -0.4726645841591294      -3.0287904416427764      -1.7608467857719106      2.0114049600726194
0                         0                        51.12799122729591        -0.47548714154946203     -3.61687227666431        -1.5617203416554304      2.315629550579139
0                         0                        52.43260637810389        -0.4787065949498177      -3.832101104950567       -1.3987744525434351      3.2758434015904214
0                         0                        56.29385247336215        -0.4914758373275645      -3.0226746554285455      -3.2288785798309654      2.020996497087893
0                         0                        56.806692658584          -0.49241501034914625     -2.9177969442057474      -3.2972469859358453      1.64163778409889
0                         0                        55.8858621805294         -0.49058972483681246     -3.1061101765644423      -3.1744880565625957      2.322795530901974
0                         0                        56.83274311242724        -0.492457524761424       -1.6648743274663236      -3.2757034646866376      2.289816569630389
0                         0                        53.58369164557911        -0.483048845721829       -3.434762114500405       -2.1893720763352746      3.6067241508044816
0                         0                        53.80465043211182        -0.48383875984984553     -3.410606384631727       -2.2098651325847243      3.543153348180379
0                         0                        54.73477691305426        -0.48700988901749387     -3.3089227884732964      -2.296130696368607       3.275551919591493
0                         0                        55.17669448611979        -0.4884293199174364      -3.2606113287358025      -2.337116808867921       3.1484103143433124
0                         0                        54.08357993543708        -0.48481585791457565     -3.380113160802626       -2.2357347442488873      3.4629041185381837
0                         0                        54.133271943115844       -0.4849875813590862      -3.374680714630358       -2.2403434820339783      3.448607512090895
0                         0                        55.824585639302015       -0.4904087632952273      -3.189782356843782       -2.397206158805851       2.9620092154454234
0                         0                        55.833937508127754       -0.49043645103592654     -3.188759988733123       -2.398073507766732       2.95931864216427
0                         0                        54.664254670191255       -0.4867781743170265      -3.3166324445366238      -2.289590036399929       3.295841475177835
0                         0                        57.298562113933315       -0.4934561215646714      -1.7442763337756446      -3.3146082109830033      1.9976719184669207
0                         0                        57.3058534033869         -0.4934706704979477      -1.8702693835008937      -3.239872586788352       0.7513238533436066
0                         0                        57.377812272227544       -0.4935229427273113      -1.8665946426539612      -3.2683383885780186      0.701512474015658
0                         0                        57.38637376905221        -0.4935289233545288      -1.8661574306382818      -3.271725182666989       0.695586033358353
0                         0                        57.8085735777547         -0.4937609045964074      -1.844596851551688       -3.438740816233755       0.40333081642291546
0                         0                        59.48600289398602        -0.49346358968724124     -1.7589351655698113      -4.102305588740123       -0.7578195645201902
0                         0                        59.526607926581804       -0.4934322477436695      -1.756861578612753       -4.118368303846053       -0.785927186469138
0                         0                        59.70138354674962        -0.4932843143747441      -1.7479362700186893      -4.187506802567887       -0.9069103933165081
0                         0                        58.49628440309841        -0.49387458812633517     -1.8094773575754566      -3.7107884506429354      -0.07271647755221444
0                         0                        60.04523895942137        -0.4929315454675139      -1.730376523030607       -4.323530619772525       -1.144934040304065
0                         0                        58.53416459114148        -0.4938713369761491      -1.8075429209100675      -3.725773259909183       -0.09893790718314932
0                         0                        58.73530010750607        -0.49383743499426763     -1.797271485162514       -3.805339320826239       -0.2381679654562987
0                         0                        60.07467767241274        -0.4928975401308234      -1.7288731692000212      -4.33517611368387        -1.165312110768042
0                         0                        60.164746811625236       -0.49278977367145127     -1.7242735868240224      -4.370806054864129       -1.2276597842561046
0                         0                        61.594193515744415       -0.4903276865294982      -2.8455685547453626      -2.3374688183167223      -1.239897690898971
0                         0                        62.835004927173365       -0.4874818025998424      -2.578700340078077       -5.910861704841719       -2.40457128937566
0                         0                        63.06747956483251        -0.486917965880631       -2.506347114504514       -6.01029752965896        -2.446166192262819
0                         0                        64.07581633860238        -0.48436044753859486     -2.1925218354060263      -6.4415910238779475      -2.6265801531355066
0                         0                        64.54076561392058        -0.48311988147987495     -2.047815384258925       -6.6404626735123315      -2.709769958909874
0                         0                        63.246757068166254       -0.48647654799330486     -2.4505504660202604      -6.086979470513466       -2.478242940144291
0                         0                        64.89932062058806        -0.48213677861564        -1.9362220872903606      -6.793826555221102       -2.7739234546727403
0                         0                        63.510949022204485       -0.4858155719928127      -2.3683258404105985      -6.199981667761222       -2.5255127790499188
0                         0                        65.07814036459129        -0.48163788567863797     -1.8805679075263129      -6.870312699764014       -2.80591829919004
0                         0                        65.31662775003136        -0.4809636213457554      -1.8063433307339665      -6.9723203429141165      -2.848589016895403
0                         0                        66.03400446710177        -0.4785242304931618      -1.8552792755808412      -6.880399317627692       -3.3861582939933577
0                         0                        66.46547554298408        -0.47749410738498627     -1.9187386126607464      -6.620534259884213       -2.1207101964263586
0                         0                        66.54532378891834        -0.4773287142008402      -1.9435510435030778      -6.6287830995530115      -2.021977779025434
0                         0                        66.37312213777084        -0.4776952353442578      -1.8900402680309298      -6.610993556471843       -2.234905252876672
0                         0                        66.20908618600785        -0.4780784759081561      -1.8390669415520335      -6.594047582892024       -2.4377358331695973
0                         0                        69.10312980796047        -0.4707824612033153      -0.11717751203111959     -5.402152277392844       -1.9590372658834632
0                         0                        69.35229503189606        -0.47030890744780063     -0.027685975812758556    -5.373572947285439       -1.842085122183807