% Model:              AluminaWithRodsOriginalRydberg.mph
% Version:            COMSOL 5.5.0.292
% Date:               Mar 10 2026, 10:26
% Dimension:          3
% Nodes:              535
% Expressions:        4
% Description:        Electric potential, Electric field, x component, Electric field, y component, Electric field, z component
% Length unit:        mm
% x                       y                        z                        V (V) @ Length=0.179     es.Ex (V/m) @ Length=0.179 es.Ey (V/m) @ Length=0.179 es.Ez (V/m) @ Length=0.179
0                         0                        214.81575215967197       0.9997861549133139       -8.06430496993471E-5     1.8194320269060427E-4    -0.003046607325281059
0                         0                        215                      0.9997867005824111       -7.765653741387268E-5    1.6734360464454312E-4    -0.002876600201421553
0                         0                        214.60190568061515       0.9997854823091792       -8.41093325050224E-5     1.9888816446211877E-4    -0.003243925376875012
0                         0                        214.67842650809135       0.9997857278356009       -8.286899024767536E-5    1.928247376241643E-4     -0.003173318927647273
0                         0                        214.09755412497356       0.9997833550311382       -3.804698977152299E-4    -3.069969483249224E-4    -0.0037689383658161546
0                         0                        212.38110533102267       0.99977166530824         -9.398996798530845E-4    4.584596175138955E-4     -0.009624106691692447
0                         0                        212.50597056281066       0.9997728440812361       -8.627392356075347E-4    4.8334008832995323E-4    -0.00925661741895567
0                         0                        213.3949563751506        0.9997798276385629       -4.3514878795036793E-4   2.80784953474722E-4      -0.006272063263899952
0                         0                        213.655205691322         0.9997813392893944       -4.148951736162587E-4    6.306458948301952E-5     -0.005344880472428315
0                         0                        212.5491687406631        0.9997732485145487       -5.009712718302417E-4    9.883571948066106E-4     -0.009285326666757854
0                         0                        212.566706332315         0.9997734108089357       -4.996064282591917E-4    9.736855294448787E-4     -0.00922284599079326
0                         0                        213.32336143281836       0.9997793694597212       -4.4072058497768296E-4   3.406801231164991E-4     -0.006527132516289669
0                         0                        212.70452362675516       0.9997746480426274       -4.888809502041624E-4    8.583898124214784E-4     -0.008731848259905917
0                         0                        213.02190162680182       0.9997772399073676       -4.641813593870836E-4    5.928765163787375E-4     -0.007601134740728099
0                         0                        213.88923846071927       0.9997824926004358       -3.966818330898292E-4    -1.327234363657226E-4    -0.004511098621847509
0                         0                        212.54187297378695       0.9997731806761526       -5.01539056770195E-4     9.94460715311618E-4      -0.009311319086345193
0                         0                        213.90357877646665       0.9997825569246923       -3.955658139549456E-4    -1.4472031227796833E-4   -0.004460008789251901
0                         0                        211.52613189503603       0.9997626065005538       -8.511917611144781E-4    -2.3813711732145748E-4   -0.011541791401413093
0                         0                        211.86867501885587       0.9997664301834781       -8.97362527837231E-4     4.795752465724945E-5     -0.01078347311461414
0                         0                        211.49018361802126       0.9997621254602432       -2.507194167833404E-4    5.430760697251458E-4     -0.013441650193726673
0                         0                        211.38229494411166       0.9997609743378163       6.231631904114465E-4     5.786907416336362E-4     -0.011118472331183682
0                         0                        211.48021853312036       0.9997620231978304       6.859428520158417E-4     6.552163982291859E-4     -0.01030353690163821
0                         0                        209.69114747205586       0.9997302707618649       -4.610461087395379E-4    -7.429128906011329E-4    -0.02519246619875304
0                         0                        209.74010926656024       0.999731494255043        -4.296562779870783E-4    -7.046500621328278E-4    -0.024784998484051357
0                         0                        210.37271651464974       0.9997455081947976       -2.408628903083354E-5    -2.1027801553330505E-4   -0.019520341984591738
0                         0                        211.28286553700931       0.9997598276974244       5.594181362980066E-4     5.009883130995263E-4     -0.011945939414220064
0                         0                        209.18635825732486       0.999716493583339        -7.84670848645419E-4     -0.0011373972693604628   -0.029393401025515686
0                         0                        209.6827179686424        0.9997300581062134       -4.66450336489288E-4     -7.495004077213707E-4    -0.02526261784505124
0                         0                        210.3267890786809        0.9997446028984568       -5.35307663653839E-5     -2.4616954359402143E-4   -0.019902557292740042
0                         0                        209.16339453934043       0.9997158164072965       -7.993930871919019E-4    -0.0011553430333322012   -0.029584508679597832
0                         0                        208.00000000000009       0.9996757659867633       -4.298980168186972E-4    4.1474565871624236E-4    -0.04114713355949107
0                         0                        205.07723483304116       0.9994862253197015       -2.0839287873286594E-4   -2.562827308878468E-4    -0.09048152851681834
0                         0                        205.1156493616384        0.9994896881837405       -2.4301911987834046E-4   -2.645715534157489E-4    -0.08980776129652668
0                         0                        206.07923711172626       0.9995680831708804       -0.0011115816872475648   -4.724878831297019E-4    -0.07290702442425356
0                         0                        206.5578246808192        0.9996009669029026       -0.0015429728584734903   -5.757542135711446E-4    -0.064512892623668
0                         0                        206.02292924567803       0.9995639501269398       -0.001060826678596527    -4.6033815954160673E-4   -0.07389462978522943
0                         0                        206.04899297217145       0.9995658701389509       -0.001084320104297376    -4.659620108782292E-4    -0.0734374880425861
0                         0                        206.05148988869414       0.9995660534515527       -0.001086570784806895    -4.665007785824571E-4    -0.07339369366151516
0                         0                        206.98379673969725       0.9996268563126125       -0.0019269372511701022   -6.67667531160987E-4     -0.0570416045326283
0                         0                        207.02574494434708       0.9996292336739069       -0.0019647486908525025   -6.767188261562751E-4    -0.05630585880635408
0                         0                        205.45815620357808       0.9995194191755812       -5.51749302239557E-4     -3.384753213424574E-4    -0.0838004018088725
0                         0                        204.98202774666515       0.999476714724979        -0.0023924947964246712   0.002079780751330418     -0.10113013308784247
0                         0                        204.77677521910445       0.9994554104255317       -0.0011718421082917985   0.0025861729308260806    -0.10646097139534305
0                         0                        202.53540252759205       0.9991449644956293       -0.002894286823494241    0.006593234246246027     -0.18316575359720488
0                         0                        202.71338286393654       0.9991769332430478       -0.0030126802282138126   0.00567530756393167      -0.17607334073133107
0                         0                        203.65608887334824       0.999325211657638        -0.0036397729548696134   8.13337880998688E-4      -0.13850705466225577
0                         0                        204.01204954603713       0.9993719901019331       -0.003876559764648846    -0.0010225154836120964   -0.12432222893070843
0                         0                        202.7978459813299        0.999191662803058        -0.0030688655142778742   0.005239692312024147     -0.17270753463832733
0                         0                        202.84311779997984       0.9991994407508062       -0.0030989805531689285   0.005006204662901581     -0.17090347900148828
0                         0                        204.13261691455372       0.9993866896705813       -0.00395676177802784     -0.0016443370107595001   -0.11951768943379193
0                         0                        204.27151941812366       0.99940290655141         -0.004049160414183461    -0.0023607212860383697   -0.11398250547117073
0                         0                        203.14543857335417       0.9992492873471737       -0.0033000858354057527   0.003446996998647478     -0.15885617205334768
0                         0                        201.4147161818359        0.9989146689395055       -0.001169176241205605    0.002754778709970651     -0.2545653514012258
0                         0                        199.8942483155135        0.9984944699929688       0.016704776214226058     0.006914571979592665     -0.34718180172683333
0                         0                        198.37378044919103       0.9978589113929108       -0.01300570455164518     0.0028641891701592925    -0.4888221864342057
0                         0                        196.85331258286868       0.9970079931393312       -0.04023482176455673     -3.7308307403804974E-4   -0.6350031685424256
0                         0                        195.33284471654622       0.9957982763970119       0.008850359703707511     0.12226951527139818      -0.9895340169014304
0                         0                        193.81237685022379       0.9939988837886686       -0.051907000950564       0.10805431803282772      -1.3773592903484086
0                         0                        192.29190898390132       0.9916098153143005       0.01263930552617154      0.03903159121976785      -2.0631462008743995
0                         0                        188.30055064254728       0.9791986128203164       0.09570845631506586      -0.17625843868222546     -4.50060478410154
0                         0                        189.63100342299865       0.9845339237055485       -0.16365425051390048     0.2801412409999955       -3.5598326082692866
0                         0                        190.96145620344998       0.9886709912035431       -0.006882169955702011    0.325155050418374        -2.659204337320539
0                         0                        185.65618396378423       0.9619271857908789       0.43136862618281224      -0.6523059893239334      -8.499551334208354
0                         0                        185.79471194927146       0.9630903287930627       0.39256854844889055      -0.6435281940977813      -8.293344312012483
0                         0                        186.97836730316573       0.9718640251313921       0.06104044905626438      -0.5685261338427523      -6.531403972128601
0                         0                        187.04763129590933       0.9723128455683009       0.041640410189216936     -0.5641372362297119      -6.428300461030744
0                         0                        185.8639431911487        0.9636609200146079       0.3731776827186124       -0.6391413717362138      -8.19028955249788
0                         0                        187.08224691684796       0.9725344733542169       0.031944977324172896     -0.561943825049056       -6.376773081273484
0                         0                        185.982044976044         0.9646178265984721       0.3400987462256211       -0.6316578782024802      -8.014488126572289
0                         0                        187.14129780929562       0.9729084321878287       0.015405509077652368     -0.5582020782821928      -6.288872368310479
0                         0                        185.38672049711036       0.959582824687025        0.5068422094925538       -0.6693804824163649      -8.900663491134566
0                         0                        184.8227921427923        0.9543267960522477       0.6647919833737745       -0.7051136781232543      -9.740103884834014
0                         0                        186.68547493100817       0.9698871780284634       0.1430761963272289       -0.587085194360391       -6.967391427472762
0                         0                        184.608994953059         0.9519255710583047       0.1216563458074944       -0.20388682886888887     -11.222918158159445
0                         0                        184.3957968332589        0.9494728114166047       -0.0517878718746374      -1.6124085023166685      -10.358862338615609
0                         0                        181.67715491764562       0.9072981072488943       1.7044354443330327       -1.2440216238329986      -20.667440850119114
0                         0                        181.74048566224778       0.9085993875993865       1.6635242343409296       -1.2526031936167286      -20.427302585063337
0                         0                        183.0364758754523        0.9318886260367198       0.8263237862292669       -1.428215063074589       -15.513151594367343
0                         0                        183.16313736465656       0.9338231286496472       0.74450136624489         -1.4453782026422317      -15.03287506425579
0                         0                        181.7810426082209        0.9094247380957994       1.6373247360753922       -1.2580988223872538      -20.273518278513166
0                         0                        181.85468573789166       0.9109074613447858       1.5897517987705427       -1.2680777616896037      -19.994277390007696
0                         0                        183.24425125660284       0.9350300296096268       0.6921023697140924       -1.4563694601831543      -14.725306451155745
0                         0                        183.39153751594435       0.9371577365685514       0.5969564951043083       -1.4763273387879394      -14.166824674144834
0                         0                        180.31783395983902       0.8757012550531292       -0.6238872758644902      0.5551053854779866       -28.55978751948863
0                         0                        182.73272060162955       0.9270014943713513       1.022547529873009        -1.3870550057297244      -16.664934427737847
0                         0                        184.23656225097696       0.9477752503685307       0.051076534263131634     -1.5908315780528213      -10.96264990761216
0                         0                        176.32647561848484       0.713008548453382        0.38690215266254313      -0.932545797025          -54.31420198898974
0                         0                        177.6569283989362        0.7808102307925222       1.803174239556256        -0.7377195286115636      -45.86129862408728
0                         0                        178.98738117938763       0.8350411329924391       2.740240383585416        -0.60871666826813        -35.66117702742172
0                         0                        173.2492261249252        0.49216370938740295      1.271226281208655        -1.8171352009202852      -87.09813216704029
0                         0                        173.371706306423         0.5027567659340585       1.2256396829972687       -1.7970331002771172      -85.8777144901432
0                         0                        174.67880356359376       0.6064953524553394       0.7391436902806987       -1.5825053269445721      -72.85352903771384
0                         0                        174.84909096245391       0.6187569204052601       0.6757634508218473       -1.5545568508050458      -71.15675043091952
0                         0                        173.9319446106849        0.5493050336686938       1.017121389125549        -1.7050838017153869      -80.29538499458965
0                         0                        174.27497595611177       0.5762626210838523       0.8894465936879357       -1.6487836677244903      -76.87735023525836
0                         0                        173.60893431229354       0.522848986468112        1.1373444367307926       -1.7580979746830971      -83.51392593040293
0                         0                        175.30072578729826       0.6498775674391738       0.5076669061672305       -1.4804321345287867      -66.65656830347746
0                         0                        174.60489806881975       0.6010838639906348       0.7666509984400847       -1.5946350909264062      -73.5899385624142
0                         0                        173.0841253649153        0.47702248972748795      3.938777661458559E-4     -2.030927604991702       -91.8227939584223
0                         0                        171.09264130149597       0.2914244649296654       4.8540026451813585       -2.1414107913645135      -94.56888067959336
0                         0                        171.32218520507377       0.31309584717081107      4.294562414964867        -2.1286761969253445      -94.25235920843566
0                         0                        171.8665364959757        0.36419794172205955      2.9678793414688176       -2.098476776186909       -93.50174519195609
0                         0                        172.08030920608812       0.38415455583720515      2.4468763773507023       -2.0866171331164143      -93.20697085186902
0                         0                        170.4838468670262        0.23359592265621126      6.33774537703273         -2.1751853769621707      -95.4083562963602
0                         0                        170.5907332220825        0.2437858972639484       6.077243894973334        -2.169255555426938       -95.26096912631652
0                         0                        172.6393138256012        0.4360422372256465       1.084480477663747        -2.055604777710051       -92.43615114463893
0                         0                        171.42180828863607       0.32247871513011594      4.051762846192581        -2.1231493258293868      -94.11498747048509
0                         0                        169.10115723807675       0.10035765218987197      2.9581952061952537       -5.385297541694894       -91.16319495223354
0                         0                        167.86492768026724       -0.009751983420569836    3.2988830172241546       -5.261003024341264       -83.16466544926652
0                         0                        166.62869812245782       -0.10526358299756677     3.5218528157753504       -3.9539350661823143      -71.35614983724366
0                         0                        165.39246856464834       -0.1861771465411303      3.427182102465394        -2.528640730295654       -58.92021184390427
0                         0                        161.68377989121993       -0.3477668563230061      1.901042790585933        -1.3029171702834574      -28.50880714200167
0                         0                        162.9200094490294        -0.30647703424440303     3.2188436606031843       -1.068511070691713       -38.48518993558411
0                         0                        164.15623900683886       -0.25261379765044534     5.410438305983732        -2.2429731685514724      -48.65596641955297
0                         0                        158.30957104372973       -0.4199961156908525      2.4990353997695713       -0.47798658981334086     -15.242149903229798
0                         0                        158.35320986980867       -0.41932748723003926     2.540018321321492        -0.5138015498998421      -15.401591961133736
0                         0                        159.9966754674748        -0.3890812515843291      4.083460886449103        -1.8626154404850581      -21.406279999998247
0                         0                        160.0184948805143        -0.38861330938634037     4.103952347225061        -1.8805229205283922      -21.486001028950326
0                         0                        157.59575321477323       -0.4299453949415616      1.8286612693204027       0.1078531164825609       -12.634092037248198
0                         0                        157.55598246896238       -0.43044497267386683     1.7913110126320664       0.1404934920794787       -12.488782684861249
0                         0                        159.6280765322841        -0.39672338004869984     3.737295267380439        -1.5601014331664658      -20.059539538609158
0                         0                        159.61988118009117       -0.3968876523427253      3.7295986928804368       -1.5533753995387087      -20.029596390814078
0                         0                        156.68792485910302       -0.43990938985410144     1.9755980240963424       -0.3413149385505676      -11.019243006919908
0                         0                        156.02329770154066       -0.4470482871986476      1.500897718167728        -0.09873890934527196     -10.265831808577907
0                         0                        156.05465141860742       -0.4467256837773239      1.5307695894722535       -0.10067063000053622     -10.312488818401441
0                         0                        156.42576573917063       -0.44279609758843047     1.884344229427235        -0.1235351980825925      -10.864738635013097
0                         0                        156.632808281716         -0.4405147398849762      2.081601485155794        -0.13629120896004565     -11.172835627815886
0                         0                        156.64988177745846       -0.440327646350963       1.946253000885548        -0.3429108543145958      -10.96932778074303
0                         0                        155.94256784126927       -0.4477679970472323      1.8871233385970214       -0.020572565302511503    -8.868930479444984
0                         0                        155.29681388614824       -0.4532569774973832      1.4502872084073344       0.2910998535732765       -8.131291994214017
0                         0                        155.92122208088483       -0.4479570508746853      1.8726834744842122       -0.010270058103043933    -8.84454742420975
0                         0                        153.92874449856515       -0.4633121859746458      0.5248230554376221       0.9513970021025857       -6.568559590107185
0                         0                        154.3129002707139        -0.4607045487717943      0.7846946668535608       0.7659846514987381       -7.007377005956357
0                         0                        154.86909017135443       -0.4566304342935074      1.1609429916522913       0.4975402226072061       -7.642707339678196
0                         0                        153.71488264116815       -0.4646908279235805      0.38015094706017294      1.054617186619665        -6.3242672628392995
0                         0                        154.35154898488736       -0.46043286952806994     0.8108395392193231       0.7473308931480003       -7.051525057629874
0                         0                        152.5606751109819        -0.47122946808886623     -2.1830738870935917      2.889546217545721        -2.3316715350257766
0                         0                        149.23916209419627       -0.48109830153291155     -1.581249795523803       0.2527793709288204       -2.0173674834072077
0                         0                        149.24847647165743       -0.481079486097034       -1.5784298734637332      0.25192340230310606      -2.0227169894698775
0                         0                        150.2157390819013        -0.4788543179035785      -1.2855917118285873      0.16303432188142608      -2.578242811704361
0                         0                        150.89991860258908       -0.47695591508295615     -1.0784567818262474      0.10015988861664482      -2.971186141427782
0                         0                        151.24386996942152       -0.4758999993280096      -0.9743257166031469      0.06855159487753326      -3.1687269786778742
0                         0                        151.38820709644156       -0.4754366518346797      -0.9306277399785898      0.0552873640930045       -3.25162380557639
0                         0                        149.23055418159112       -0.48111564557815867     -1.583855835782316       0.2535704171532558       -2.012423719762104
0                         0                        150.75108829218038       -0.47739175682563934     -1.1235150669641314      0.11383703202211848      -2.8857087543277027
0                         0                        149.04327106736088       -0.4814824662955634      -1.6121781778604003      0.28950367901464436      -1.6587136748113336
0                         0                        147.93496288684173       -0.48295546412268364     -1.131550610008663       0.051613243581577706     -0.9993878406537053
0                         0                        148.07160234975674       -0.48281335486787325     -1.1908055121088665      0.08094192841983183      -1.0806738308221329
0                         0                        146.82665470632259       -0.48369772573417946     -0.6509230421568262      -0.18627719185156622     -0.34006200649620766
0                         0                        146.89497443778006       -0.4836731044299617      -0.6805504932068303      -0.17161284943243515     -0.3807050015804947
0                         0                        148.42801036309305       -0.4823904103552813      -1.3453649745612282      0.15744236302351267      -1.2926988025979502
0                         0                        148.86623646598983       -0.4817667936497026      -1.5354055695027338      0.25150446620805056      -1.5533968610627316
0                         0                        147.21631605778063       -0.48352005356333294     -0.8199031064828617      -0.1026391657149297      -0.5718691880228555
0                         0                        147.42890907400533       -0.4833850348165263      -0.9120959334656789      -0.05700759311744008     -0.698339487730232
0                         0                        149.0011131373102        -0.4815518655807868      -1.593896021559516       0.28045478042048444      -1.6336341771718814
0                         0                        145.71834652580347       -0.4837092511300504      -0.1193679891066699      -3.9356354089369816      -7.187911005393133
0                         0                        142.23676138452265       -0.48774090419091987     0.9668207209346633       1.861960183304916        -0.6771565818639811
0                         0                        142.72693741932068       -0.48737579455120267     0.7282433409511242       1.7052954952203265       -0.812551660880632
0                         0                        143.20684847626796       -0.4869540335883363      0.49466210795830534      1.5519115867722775       -0.9451113758880716
0                         0                        143.87535786434267       -0.4862604963518598      0.16928671834556042      1.3382499482400192       -1.1297652043008544
0                         0                        144.4625975010357        -0.48554942662948064     -0.11653324019735578     1.1505628562929928       -1.2919709250364058
0                         0                        143.7541421024076        -0.4863954124358014      0.22828458205599134      1.3769916005982026       -1.0962833192225485
0                         0                        143.3081923324342        -0.48685683390167644     0.4453362536424521       1.5195211749846464       -0.9731042976944417
0                         0                        144.51326942911882       -0.48548360535785173     -0.14119616735533214     1.1343676503990565       -1.3059673859396561
0                         0                        142.10311523574956       -0.4878289367615255      1.0306439335995954       1.9036334492737907       -0.6525430179107268
0                         0                        143.42899106418815       -0.4867372688094827      0.3865413659261776       1.4809128092390011       -1.0064709918406844
0                         0                        140.52114193053617       -0.4886973456969762      1.6570911540554913       2.2782091410543686       -0.4453376259516606
0                         0                        140.62934387560767       -0.48864839257036624     1.6142441556172553       2.2525893544918496       -0.45950981606730146
0                         0                        141.11787963967154       -0.48840827538782916     1.4207883808056767       2.136915075298446        -0.5234977760065032
0                         0                        141.54626707868155       -0.48817199715198717     1.2511508024966176       2.035482566425774        -0.5796075642803702
0                         0                        141.98381743967332       -0.4879058516606942      1.0778847893790342       1.9318804837502341       -0.6369175035520485
0                         0                        139.99694879014822       -0.48891279351286887     1.8646669296365062       2.4023262848395106       -0.37667929603014016