% Model:              AluminaWithRodsOriginalRydberg.mph
% Version:            COMSOL 5.5.0.292
% Date:               Mar 10 2026, 10:24
% Dimension:          3
% Nodes:              587
% Expressions:        4
% Description:        Electric potential, Electric field, x component, Electric field, y component, Electric field, z component
% Length unit:        mm
% x                       y                        z                        V (V) @ Length=0.162     es.Ex (V/m) @ Length=0.162 es.Ey (V/m) @ Length=0.162 es.Ez (V/m) @ Length=0.162
0                         0                        214.92191193691227       0.9999917472755895       3.406188662324894E-5     2.331962195256665E-5     1.3272673271558233E-7
0                         0                        215                      0.9999917472651205       3.385455617888056E-5     2.292210979248921E-5     1.3541232135594328E-7
0                         0                        214.8711002904549        0.999991747282289        3.419679570981771E-5     2.3578281478364715E-5    1.3097932338723695E-7
0                         0                        214.30014482563752       0.9999917473868608       3.474346380194504E-5     2.6231757914274567E-5    -5.317020658424099E-6
0                         0                        214.59808257559595       0.9999917481158856       3.413143863717494E-5     2.352018559292901E-5     4.2321384619015134E-7
0                         0                        214.8511218861987        0.9999917473919882       3.361164418969054E-5     2.1217240117721303E-5    5.298410046705726E-6
0                         0                        213.8713921498523        0.9999917433362994       3.562420936198407E-5     3.0133895023709556E-5    -1.357760800857477E-5
0                         0                        213.6730113849929        0.9999917402636459       3.6031723972485E-5       3.193938556478315E-5     -1.7399722306521426E-5
0                         0                        211.60839352718267       0.9999916896698443       8.636257803118497E-5     4.579526077463925E-6     -2.6826053471040723E-5
0                         0                        211.8466016458139        0.9999916960082179       7.78096652993554E-5      9.3518231096823E-6       -2.875339589536452E-5
0                         0                        211.47472477752058       0.9999916860677251       8.926094650973937E-5     3.1389462833431026E-6    -2.7070148078678358E-5
0                         0                        212.11127459449446       0.9999917033337729       7.225672760569068E-5     1.0322928375217089E-5    -2.66021237393943E-5
0                         0                        212.2567917652134        0.9999917071187818       6.920372251784102E-5     1.0856841782924675E-5    -2.541935424460462E-5
0                         0                        212.63374287452828       0.9999917161231702       6.129514729025232E-5     1.2239903945499009E-5    -2.2355480993496712E-5
0                         0                        211.2320798969517        0.9999916612870212       1.019277853231415E-4     3.1149910029171224E-5    -1.0713600983081051E-4
0                         0                        211.36518249038573       0.9999916751814111       9.63736431884854E-5      3.38060112170524E-5      -1.0164113484734116E-4
0                         0                        212.92850485403244       0.9999917251508543       5.356889288776756E-5     4.033168407602261E-5     -2.769776871502927E-5
0                         0                        213.0310687474532        0.9999917278871068       5.156721483245974E-5     3.902311902947986E-5     -2.5659266782440682E-5
0                         0                        212.73386344046708       0.9999917193832282       5.736759278107684E-5     4.2815023803655095E-5    -3.15663523693388E-5
0                         0                        213.0332106590235        0.9999917279420216       5.1525412416708605E-5    3.8995791314277994E-5    -2.5616695040753257E-5
0                         0                        213.29620728949726       0.9999917339917614       4.6392664728500677E-5    3.564033937664135E-5     -2.0389521722563586E-5
0                         0                        210.97267886500774       0.9999916370662671       8.402480384717137E-5     2.2749454956283444E-5    -9.910296649806583E-5
0                         0                        208.52847287499935       0.9999911108469626       7.911325323561869E-5     -3.57603496468073E-5     -4.219557811353525E-4
0                         0                        208.61336413510685       0.9999911460579921       7.956945137266302E-5     -3.1823414474274614E-5   -4.0760027779285224E-4
0                         0                        209.75057587000353       0.9999915002385          8.568072726689024E-5     2.0916157566830407E-5    -2.1529253502805545E-4
0                         0                        209.92035839021838       0.999991534354096        8.659312373993089E-5     2.879002755662441E-5     -1.865815288191186E-4
0                         0                        208.68586468620325       0.9999911751648022       7.995906304358869E-5     -2.8461113657840542E-5   -3.9534010072372894E-4
0                         0                        208.75423646538428       0.9999912017996521       8.032648713651724E-5     -2.529028944309175E-5    -3.837781178823718E-4
0                         0                        210.04315130589438       0.9999915559900979       8.725300202172548E-5     3.4484697664538544E-5    -1.658166811466799E-4
0                         0                        210.2021030507733        0.9999915802106792       8.810719484131369E-5     4.185627746267073E-5     -1.3893720886670735E-4
0                         0                        207.30636987999523       0.9999904688916522       -1.665466655254022E-5    -3.686371479716399E-5    -6.195794405812194E-4
0                         0                        203.1981646343215        0.999983969494223        1.6491459382450557E-4    3.98026452103295E-4      -0.0025202947574808816
0                         0                        204.5675663828794        0.9999870505702966       -5.143271647511938E-5    -1.0629496372871472E-5   -0.0019159979488279077
0                         0                        205.9369681314373        0.9999892170361063       7.117187976746209E-5     6.101346035336519E-5     -0.0012481075623327342
0                         0                        199.0899593886477        0.9999631769172604       -2.862514805599403E-4    2.813977579165794E-4     -0.00798776892864339
0                         0                        200.45936113720558       0.9999724274848752       -4.0864134621187986E-4   1.0288318020457154E-4    -0.005908210143040417
0                         0                        201.82876288576355       0.9999793583438626       -1.2186337630737398E-4   2.504548159549813E-4     -0.004214252450189596
0                         0                        198.02714872988327       0.9999534841416223       -7.087371984937363E-5    3.281837449407021E-4     -0.010429770819087025
0                         0                        198.07036330237116       0.9999539325581736       -6.800985165966722E-5    3.2932084423009655E-4    -0.010323254147827754
0                         0                        197.00969118443774       0.9999415964709683       -1.3830153361382713E-4   3.0141152051044173E-4    -0.01293763297567807
0                         0                        197.05076721609467       0.9999421258182078       -1.3557938844499517E-4   3.024923487444653E-4     -0.01283638744868476
0                         0                        196.96433807111887       0.9999410071740712       -1.4130712499582643E-4   3.0021815018521636E-4    -0.013049420791373834
0                         0                        197.54169294031357       0.9999481305087863       -1.0304530559324121E-4   3.1541001158785775E-4    -0.01162633789829215
0                         0                        196.10396561156006       0.9999288675271538       -1.9832477080683475E-4   2.7757928464211545E-4    -0.015170094564467718
0                         0                        197.49301405007532       0.9999475616311841       -1.0627129881157771E-4   3.1412913061501513E-4    -0.011746323196192066
0                         0                        197.43980658569473       0.999946933150099        -1.097974045620731E-4    3.12729089671393E-4      -0.011877470669563905
0                         0                        196.03117112981812       0.9999277566973639       -2.8807676372366586E-4   3.19052712939083E-4      -0.01558135924653925
0                         0                        194.3007368226733        0.9998933656270548       -2.74988059544512E-4     5.4049352272045326E-5    -0.02416712489602446
0                         0                        194.4817992515555        0.9998976600554198       -2.763575841484567E-4    8.177773923989662E-5     -0.023268761071648214
0                         0                        194.67377692120112       0.9999020357065502       -2.7780966994228606E-4   1.1117771549251643E-4    -0.022316239918765746
0                         0                        195.16595397624567       0.9999124183001387       -2.815324113925044E-4    1.8655103255582617E-4    -0.019874242071466597
0                         0                        195.19299083924997       0.9999129538238453       -2.817369137346759E-4    1.906915304772383E-4     -0.019740095303291127
0                         0                        195.39655709319106       0.9999168694381694       -2.832766533344966E-4    2.218662137636329E-4     -0.01873007594414844
0                         0                        195.08485597411337       0.9999107902227931       -2.8091900030347006E-4   1.7413146648692646E-4    -0.020276619924374018
0                         0                        195.4542953446802        0.9999179426097068       -2.8371337546673203E-4   2.3070840475725163E-4    -0.018443600407522354
0                         0                        195.65050026837918       0.9999214658326414       -2.851974355451148E-4    2.607557540841299E-4     -0.017470105206086828
0                         0                        195.98053838464793       0.9999269614103754       -2.876937864755291E-4    3.1129867829804425E-4    -0.015832579927234747
0                         0                        193.97629051798464       0.9998852635489699       3.5558080189446173E-4    8.029818833108493E-4     -0.027117860875137012
0                         0                        193.93426709028373       0.999884119976275        3.1880633849823425E-4    7.588157497053771E-4     -0.0273076230698166
0                         0                        193.38712186269976       0.9998680239511991       -2.0972882138181603E-4   2.4074201821377983E-4    -0.03100646407760621
0                         0                        193.9282766959312        0.9998839531598751       4.935268990635677E-4     6.087319169552075E-4     -0.02786470438621791
0                         0                        193.37767889458473       0.9998677103002158       -0.0011666481152587949   7.565662873503243E-4     -0.03325008048989275
0                         0                        193.34176429588604       0.9998665113855738       -0.0012109654232972389   6.698419500708042E-4     -0.03351467175588141
0                         0                        191.0655855824976        0.9997753344405527       -0.002076601942430756    0.0032668288842021553    -0.05202467598666516
0                         0                        191.27097440097148       0.9997857979300165       -0.001725157944370892    0.0033363784264679452    -0.04986489660144855
0                         0                        192.2036749391918        0.9998277330418207       -1.2919956441237446E-4   0.0036522130277063525    -0.040057023855354146
0                         0                        192.6144525761395        0.9998433003823504       5.736884312455004E-4     0.0037913121122130633    -0.03573746508499198
0                         0                        191.3011651303208        0.9997872985952497       -0.0016734981184001185   0.0033466017258980685    -0.04954742403717205
0                         0                        192.67483403483814       0.9998454390931671       6.770080833859993E-4     0.0038117587111230478    -0.035102519956296874
0                         0                        189.9274962258034        0.9997093155817695       -0.001216649702541872    0.001356824754225272     -0.06939069342314497
0                         0                        191.33547925664413       0.9997889925809929       -0.001614782683546423    0.003358221305884257     -0.049186591625726805
0                         0                        192.69910424760204       0.9998462879417337       7.18537221501947E-4      0.003819977182828893     -0.03484730496660404
0                         0                        187.31043313116413       0.9994713722996363       0.0012695029511746725    0.0023446770868069677    -0.11408996578904862
0                         0                        187.40677076230094       0.9994822812884713       0.00122422158591462      0.002198895366287701     -0.11238412759314542
0                         0                        188.6189646784837        0.9996055032799028       6.544567405200041E-4     3.645580188731401E-4     -0.09091996391691737
0                         0                        188.6671334940521        0.9996098622448248       6.318160582310384E-4     2.9166715831863144E-4    -0.09006704481907946
0                         0                        188.13129652689548       0.9995590589828919       8.836743313658246E-4     0.0011025157760169435    -0.09955504192363662
0                         0                        188.17720791598347       0.9995636110313912       8.620947017874414E-4     0.0010330409382017791    -0.09874209478948615
0                         0                        189.02939637634944       0.999641328316693        4.615424305711713E-4     -2.565226369455331E-4    -0.08365250198426111
0                         0                        189.05235207089345       0.9996432439525349       4.5075261550664436E-4    -2.9126005567547963E-4   -0.08324602841742035
0                         0                        187.30206376107347       0.9994704168183376       0.0012734367874855934    0.0023573419322318045    -0.11423816116183616
0                         0                        188.60636440531187       0.9996043562578885       6.603792191413049E-4     3.836252251581129E-4     -0.09114307535310218
0                         0                        186.53617281006802       0.9993714235283351       -5.43788710018589E-4     0.002726883861949858     -0.1437940977037897
0                         0                        186.7835268659518        0.9994058299071725       4.652446421005152E-6     0.002596708350686594     -0.13440129080095176
0                         0                        186.13059664093376       0.9993099809307157       -0.0014430448887807756   0.0029403272395108204    -0.15919509296023193
0                         0                        186.2219259178955        0.9993243617358274       -0.0012405467569749362   0.0028922631993428816    -0.15572703475510252
0                         0                        186.29356027092626       0.9993354197120317       -0.0010817168268886235   0.0028545640457049437    -0.15300685439112272
0                         0                        187.1432034141975        0.999451714660622        8.021385493179878E-4     0.002407420657966064     -0.12074324766388145
0                         0                        187.28148599370675       0.9994680482859394       0.001108743013617186     0.002334646409562602     -0.11549222575217755
0                         0                        187.29565436547264       0.9994696808113153       0.001140157571171585     0.002327189992440637     -0.11495420837570691
0                         0                        186.39113324709047       0.9993501682848833       -8.653749692086876E-4    0.0028032141215827977    -0.14930170340534232
0                         0                        185.7702818590626        0.9992501995635349       -0.001998480100294131    0.002339821502715722     -0.17241421984144267
0                         0                        185.29146617637986       0.9991635090879138       -0.0029471175771860203   0.0012663042789782253    -0.18937529835481381
0                         0                        185.32562464426297       0.9991699675427786       -0.0026358636192007623   0.0013395708905008519    -0.18845711243466923
0                         0                        183.71060429908337       0.9987967645501303       -0.0010697436965472207   -0.0014858458233675265   -0.2744279219115242
0                         0                        183.7115466882953        0.9987970231446976       -0.0010707604237012447   -0.0014897482375886284   -0.2743783746011559
0                         0                        183.23071254114706       0.9986590147971945       -5.519969223541921E-4    5.013760072216655E-4     -0.2996588410213974
0                         0                        183.31834311121904       0.9986850722025972       -6.465400025206236E-4    1.3849963167444912E-4    -0.29505155242256365
0                         0                        183.84279709158193       0.9988325825600247       -0.0012123641745702685   -0.0020332534391798163   -0.2674777178306158
0                         0                        183.03710385284785       0.9986000128490541       -3.4311591491587023E-4   -0.001211282287435722    -0.3013944279243894
0                         0                        183.9583813284503        0.9988631475659001       -0.0013370659739848634   -0.005224349490561053    -0.2638951253424864
0                         0                        184.42660717733062       0.9989802681843677       -0.002548152421809391    -0.002640116086411126    -0.23637891440927206
0                         0                        184.47167679389221       0.9989908620056095       -0.002664726938064632    -0.002391367733594052    -0.23373030994014243
0                         0                        184.10827189631786       0.9989020427920634       -0.0017247644229883008   -0.004397073052558653    -0.25508651195158905
0                         0                        184.49509211256498       0.9989963187650089       -0.002725291674437358    -0.0022621338418389314   -0.23235426278398563
0                         0                        184.73244696749583       0.9990498137905466       -0.002040163538822526    -8.230079393953815E-4    -0.2173917520804416
0                         0                        184.91577215542665       0.9990888250025163       -0.0023375907414262542   -1.3783728871175072E-4   -0.20820401476679695
0                         0                        185.25025818932002       0.9991556627611421       -0.0028802616452310303   0.001112291054546688     -0.19144052553169288
0                         0                        181.71490193439988       0.9981113312026529       -0.002629615806000629    0.009159098994018677     -0.43779924526993597
0                         0                        181.9871364310332        0.9982266924011407       -0.0021588373732015498   0.007023891437228258     -0.40971420298535577
0                         0                        182.1223120191572        0.9982811332223672       -0.001925076581585472    0.0059636733499246475    -0.3957688281144982
0                         0                        182.2797469228849        0.9983421625401725       -0.0016528224835212768   0.004728869530708835     -0.37952707336658165
0                         0                        182.4784967772693        0.9984155559065215       -0.0013091219385046315   0.0031700215659782316    -0.3590230662200753
0                         0                        181.522389992922         0.9980251379308084       -0.002962529052666696    0.010669021349031027     -0.4576597188087561
0                         0                        182.516335405969         0.9984290669932424       -0.0012436871367640379   0.0028732431380973367    -0.35511944819908337
0                         0                        182.6647708058406        0.9984806427710076       -9.869959906723125E-4    0.0017090248210536174    -0.33980612628918294
0                         0                        182.78222557140796       0.9985198430079889       -7.838800330546292E-4    7.877958581019584E-4     -0.32768891815340595
0                         0                        182.8964851802237        0.9985566111934423       -5.862894990400491E-4    -1.0837264093765953E-4   -0.31590133801670106
0                         0                        180.76503306295905       0.9976489390209632       -0.017670283936240594    0.05089311491556714      -0.6054371385870922
0                         0                        179.18884255026921       0.9966305426297121       -0.003164558448936816    -0.006686444684106618    -0.7849550462960551
0                         0                        179.2479278250302        0.9966766143949939       -0.0019268042981543942   -0.007726951314594999    -0.774545708107496
0                         0                        179.39229191194337       0.9967865951500272       0.0010974221018038577    -0.010269239393863927    -0.7491123897544796
0                         0                        177.61265203757952       0.9951744616272437       -0.03618355272852547     0.021070668852289032     -1.0626401406384574
0                         0                        177.89802391958858       0.9954705356595123       -0.03020540956385176     0.01604519784149261      -1.012364798070145
0                         0                        178.0195507609276        0.9955922642126599       -0.027659591627218205    0.013905079432348089     -0.9909548275555444
0                         0                        179.6394443237518        0.9969663593245198       0.006274920637657999     -0.014621655868864991    -0.7055703558205195
0                         0                        179.67114322095557       0.9969886366146953       0.00693896835068486      -0.01517988146525795     -0.6999858080200809
0                         0                        178.57725337895212       0.9961175242910834       -0.01597649912908139     0.004083795289801628     -0.8927016640867222
0                         0                        177.4833635369485        0.9950356020501271       0.013406258545956007     0.006647223527160406     -1.1607277010886037
0                         0                        177.42820835331705       0.9949712645918534       0.011096956855759288     0.007831881194007906     -1.172233737447101
0                         0                        177.19139621731586       0.9946878159357706       0.001181829574505855     0.012918280949463679     -1.221635604461369
0                         0                        176.83265416738664       0.994219852918169        -0.01097377611409911     0.01616829590822988      -1.325620566269742
0                         0                        176.46149794131316       0.9937026074932215       -0.034877499654591304    0.026413245592152634     -1.4615907943973188
0                         0                        176.52691797507669       0.9937974408799505       -0.030664226937481942    0.02460746972975869      -1.4376246683021652
0                         0                        175.1590450568943        0.9914990772939903       0.0019983306089947916    0.08153839010771313      -1.9509630497415635
0                         0                        175.2516475784658        0.9916780352910719       8.915354419016808E-4     0.07650761577564391      -1.9141152233929102
0                         0                        175.9648637730778        0.9929420083860225       -0.007632900219711303    0.03776104965469518      -1.6303166178890187
0                         0                        176.32132687749333       0.9934978754588412       -0.01189338508009996     0.01839564355590584      -1.4884750098171011
0                         0                        174.87624099331018       0.9909314248109384       -0.0031076647129495427   -0.05032582746751757     -2.018769505918044
0                         0                        175.70563693925197       0.9925060169537165       -0.00453459358635655     0.0518439458831258       -1.733466566676901
0                         0                        175.31130866370188       0.9917915253063073       1.7845981854058834E-4    0.07326643560980783      -1.8903752509682032
0                         0                        174.82019293631777       0.9908177368147391       -0.0029749344907870068   -0.052302852719968485    -2.038034683198333
0                         0                        174.76856164532649       0.9907120523021903       -0.002852663834588043    -0.05412408206479569     -2.0557817029441097
0                         0                        174.27207221593008       0.9896490138804195       -0.020708361926637053    -0.07698266368683448     -2.337282538160494
0                         0                        174.12192808871828       0.9892900146919109       0.035361776219033914     0.11103215206414152      -2.212510119698848
0                         0                        172.44235596298265       0.9844030723035658       -0.05406242807229944     0.07088374703365385      -3.6067605308006847
0                         0                        172.49817764974867       0.9846031144042876       -0.05109035569471132     0.0722181057405229       -3.560421699303305
0                         0                        173.28214202585045       0.9871392615135862       -0.009350325926620995    0.09095794954917033      -2.9096353252496314
0                         0                        173.39378539938247       0.9874589295935711       -0.0034061811713250734   0.09362666696253691      -2.8169576622552217
0                         0                        172.93973861559286       0.9860943306420956       -0.02758065497285145     0.0827731561791305       -3.1938720592365115
0                         0                        173.5031189190553        0.9877619559234105       0.00241498176014332      0.09624016974936578      -2.726197460644851
0                         0                        173.86025951809467       0.9886826509087245       0.021429951941939862     0.1047772401157554       -2.4297270564257474
0                         0                        173.08706533693163       0.9865558643702448       -0.019736648380511923    0.08629484648909602      -3.071572850619326
0                         0                        171.60256990011476       0.9810814470618499       0.10958340963020419      0.06844758337739876      -4.623400758040248
0                         0                        170.16955393820743       0.9736040001651227       0.05215915188627207      -0.07263536950947014     -6.062129097457181
0                         0                        170.69527340904082       0.976628171039993        0.07295423044448057      -0.0972918132625864      -5.442755323416655
0                         0                        169.71117759628288       0.9707014942457263       0.03402786216156528      -0.0511373441946148      -6.602162899855006
0                         0                        169.78797691796692       0.9712050614484297       0.037065695105368945     -0.05473926168184562     -6.511682161829761
0                         0                        169.58530600669408       0.9698611364439991       0.029048952802199324     -0.04523391862068138     -6.750457885704538
0                         0                        169.12944416286504       0.966661445095541        0.011017125221002289     -0.023853824225682274    -7.287529244704906
0                         0                        169.85878278277949       0.971663173437648        0.039866454070619284     -0.05806008375512306     -6.428262585142527
0                         0                        169.97220880545618       0.9723847270050741       0.044353073233409646     -0.06337980749285066     -6.294630281913918
0                         0                        168.95864741514833       0.9653995746558957       0.00426118030487288      -0.015843391595922185    -7.488752581667249
0                         0                        168.880680426893         0.9648121182871596       0.0011771597660583666    -0.012186710100777987    -7.580609000242919
0                         0                        166.87758042452236       0.9449512783236124       -0.16605276026336924     0.12522687758787754      -12.533702086162684
0                         0                        167.05911263933245       0.947183468366745        -0.15007668554311238     0.10753143153185718      -12.05906835370142
0                         0                        167.9639079614751        0.9570242307704914       -0.07044851768270632     0.019333549786445303     -9.69339248007595
0                         0                        168.2421948553279        0.9596205329270954       -0.04595737039809933     -0.0077933748946463766   -8.96578417505637
0                         0                        167.87913042570767       0.9561930529841258       -0.07790951983839989     0.02759751721756487      -9.915051639978998
0                         0                        167.30902436771834       0.9501155224884836       -0.1280827466143144      0.08317046886142876      -11.405649694353741
0                         0                        167.4579136913392        0.9517847217146158       -0.11497946926118141     0.06865699533157321      -11.016363993919052