% Model:              AluminaWithRodsOriginalRydberg.mph
% Version:            COMSOL 5.5.0.292
% Date:               Mar 10 2026, 10:26
% Dimension:          3
% Nodes:              728
% Expressions:        4
% Description:        Electric potential, Electric field, x component, Electric field, y component, Electric field, z component
% Length unit:        mm
% x                       y                        z                        V (V) @ Length=0.177     es.Ex (V/m) @ Length=0.177 es.Ey (V/m) @ Length=0.177 es.Ez (V/m) @ Length=0.177
0                         0                        1.15048536828607         -0.44799601809892725     -0.6970932160680167      -1.0525595182566292      8.233006631008124
0                         0                        2.2683395446468224       -0.45587557831702724     -1.3896908499820455      -1.7195550217875022      5.4017225011508
0                         0                        0.03263119192531742      -0.43746897662407086     -0.22235185087125253     -0.7971018116764697      10.601366755917825
0                         0                        0                        -0.4371219134184053      -0.2084937136201825      -0.7896447661794923      10.670501367049093
0                         0                        4.504047897368328        -0.4661271303234889      -1.4676585239924336      -0.4116022156210519      3.8159426005309314
0                         0                        5.621902073729081        -0.46996274338100824     -1.956935252630771       0.02363442057141185      3.046514307768774
0                         0                        3.386193721007575        -0.461431408635495       -0.9783817953540677      -0.8468388518137431      4.585370893293316
0                         0                        6.54305014761858         -0.47215056875269756     -1.415637951427307       -0.9539237119166444      2.0735676956730096
0                         0                        6.567638882369701        -0.47220135723995327     -1.4165832622994827      -0.9407215748821329      2.0574693641645467
0                         0                        7.464198221508079        -0.4737828691589055      -1.4510513754158278      -0.45934262737439724     1.4704887974717096
0                         0                        7.513375691010326        -0.47385439240168975     -1.4529419971601536      -0.432938353304948       1.438292134454752
0                         0                        6.763867749765735        -0.47259248719168356     -1.4241272568827963      -0.8353627419145369      1.9289976314442967
0                         0                        7.905833425802391        -0.47436844154953905     -1.4680299863268331      -0.22222068736998324     1.1813486690142856
0                         0                        6.801901693464063        -0.47266538103818784     -1.4255894671532232      -0.8149416286787812      1.9040966741389376
0                         0                        7.981901313199044        -0.47445641008385353     -1.4709544068675902      -0.18137846089857845     1.1315467544035531
0                         0                        7.170373780867562        -0.4733225424153147      -1.4397553310668751      -0.6171022912506317      1.6628566967800857
0                         0                        8.176210155634088        -0.4746639201547135      -1.4784245863283063      -0.07705052410784674     1.0043320688082513
0                         0                        8.385346295397579        -0.47485964459963215     -1.0095426178406939      -0.19361344930047863     1.5807145811168795
0                         0                        8.527938027679191        -0.47507902372163907     -1.1495146018172733      -0.15664298415890698     1.496309850757413
0                         0                        8.587277452685166        -0.4751833802683305      -1.5504466169345505      -0.32657554222737417     1.6508292388925554
0                         0                        8.832936333092231        -0.4754792798170996      -1.4035153517962584      0.10217960356766298      0.7581986641795879
0                         0                        9.388886145887556        -0.47565887797564416     -1.7019919285940972      0.18207869129930998      0.13995444696791992
0                         0                        9.564655465120962        -0.47567330295847404     -1.8185298358344681      0.2015711467527268       0.024180942446662357
0                         0                        9.58138634459009         -0.47567361533906427     -1.829622680069832       0.2034265668235662       0.013160859087975041
0                         0                        9.638740478429547        -0.47567328682677834     -1.8676494003096877      0.20978702212840972      -0.02461643391364987
0                         0                        9.663235534671765        -0.47567248624309005     -1.8838900195749915      0.21250347341067766      -0.040750526694957045
0                         0                        9.710673338604247        -0.47566981201317204     -1.9153420523785911      0.21776422815450758      -0.07199625736058124
0                         0                        9.782448901947637        -0.47565740457023187     -1.4082588360163797      1.3384978739932336       0.6695930520573796
0                         0                        10.823928186969102       -0.4757277599547173      -2.808071070019807       0.9699432802857189       -0.5471413561345528
0                         0                        10.835705877005877       -0.4757212403996623      -2.808354417003379       0.9721109230182208       -0.5599611460986011
0                         0                        11.680844101332896       -0.47485926741999374     -2.8286867033732292      1.1276556626296497       -1.4798779118373204
0                         0                        11.778218009519447       -0.4747100056116566      -2.8310293192071967      1.1455769904762008       -1.5858675453765017
0                         0                        10.614225503825162       -0.47581856387546695     -2.8030260550346213      0.9313482335743686       -0.3188840030866089
0                         0                        10.659021778842853       -0.4758031869293091      -2.804103761220155       0.9395928315970536       -0.3676438902213235
0                         0                        11.900676398129782       -0.47450764136716006     -2.833975416015882       1.1681150293689484       -1.7191611552800197
0                         0                        12.014494938047237       -0.4743049185049575      -2.9368734748754406      1.2013852837327121       -1.9388464362495448
0                         0                        12.114116367179879       -0.47410609394203906     -2.9687486075704754      1.2291447267310787       -2.0527558655748663
0                         0                        13.548151648647643       -0.4711878915468545      -3.983871756401406       0.8589280134843094       -2.335879018196593
0                         0                        13.715014860323226       -0.4707922765790141      -4.0831769347703535      0.8462194624821109       -2.405908747577591
0                         0                        12.970475292791226       -0.47246724734858264     -3.640079658779616       0.9029247060893546       -2.0934378086324372
0                         0                        12.97052445106257        -0.4724671444382916      -3.640108914304859       0.9029209621220815       -2.093458439545664
0                         0                        12.817515671411293       -0.4727825492105933      -3.5490489137049046      0.9145743389237246       -2.0292431860797464
0                         0                        13.729721399195416       -0.47075684860344624     -4.0919292262505         0.8450993905534787       -2.412080838639504
0                         0                        13.729762557838296       -0.4707567493251169      -4.1009146634379405      0.8342876214962729       -2.4432490377207685
0                         0                        14.189128398510823       -0.469627944223196       -4.352519069635086       0.7302738124163          -2.4713745671536387
0                         0                        14.410270566613564       -0.4690799219782967      -4.473643321732638       0.6802007830005152       -2.4849144084024175
0                         0                        14.188154540565083       -0.4696303509619214      -4.351985666999326       0.7304943222266473       -2.4713149408864012
0                         0                        13.74141671271567        -0.4707282711645316      -4.1072978910487805      0.8316487813103137       -2.443962585065705
0                         0                        14.461249947395725       -0.4689531630192963      -4.501565808984175       0.6686575660039296       -2.488035715969609
0                         0                        14.465629764114238       -0.4689422652916201      -4.584433131176728       0.7527825340039129       -2.670972908424879
0                         0                        13.729791298850634       -0.47075667910364094     -4.10093040549954        0.8342811136937698       -2.443250797442751
0                         0                        14.868620790022632       -0.46794063451753337     -4.606553070355618       0.7088370168564495       -2.300010114479633
0                         0                        15.536758356387205       -0.46612255400960523     -4.505711535743583       0.41784762016893495      -2.625933595721566
0                         0                        15.662518868488775       -0.46579456837449074     -4.514179046486998       0.378934688001749        -2.5901017023807604
0                         0                        15.975993919823631       -0.4649966352526774      -4.535285459943827       0.2819389521790363       -2.500785871705947
0                         0                        16.220308444992472       -0.4643941603678929      -4.551735264672365       0.20634292933765508      -2.431175372661591
0                         0                        16.29048695398882        -0.4642242457280027      -4.556460414633652       0.18462823118202076      -2.4111799956775903
0                         0                        16.367917345173296       -0.4640384012366969      -4.561673837020787       0.16066964903659287      -2.389118400412862
0                         0                        17.08336704962463        -0.46240202836210703     -4.609845381153054       -0.06070544997646721     -2.1852712859870422
0                         0                        18.190740179425635       -0.46015681384582213     -5.16222796196007        0.03269643379775289      -1.1927312216276107
0                         0                        14.930407440603009       -0.4677671686023001      -4.4648856611675996      0.6054652726515002       -2.798696102635944
0                         0                        21.26249870496375        -0.4598629626425754      -4.522728599828355       -0.4247689215755912      0.9058869880515772
0                         0                        22.798377967732808       -0.4620234250024286      -3.2358633958979226      -0.6509640301149489      3.1803124781719063
0                         0                        19.726619442194696       -0.4592407589237068      -5.06704261489395        -0.028541863092540254    -0.09566220808166292
0                         0                        23.73753250482607        -0.4635676448420738      -2.561588381581423       -2.7941412864494097      1.6890617606413088
0                         0                        23.772160229068668       -0.46362619040063924     -2.5653464720884074      -2.790675495192808       1.6923651073333055
0                         0                        24.676687041919333       -0.4651960050343025      -2.6635132937060177      -2.7001439575878834      1.778653355272187
0                         0                        24.69046347926072        -0.4652205175934183      -2.6650084280101822      -2.6987651128290153      1.779967572412179
0                         0                        24.745942490404524       -0.4653194152448782      -2.6710294747199903      -2.693212375074502       1.7852600486560135
0                         0                        24.836476275804387       -0.46548143254532226     -2.6808549589794097      -2.684151103831887       1.7938966104587308
0                         0                        23.935541065722177       -0.4639039636448358      -2.583077928159721       -2.774323168045253       1.707950987089859
0                         0                        24.66310976929281        -0.46517186456555104     -2.6620397744237927      -2.701502868512275       1.7773581376511558
0                         0                        25.61584157901259        -0.46690850557911395     -2.769256009828183       -2.627599727160799       1.7206457540911089
0                         0                        26.348706935451524       -0.46834026393918654     -2.6047770096000207      -2.690137951513364       2.1866432110463982
0                         0                        26.360657653639752       -0.46836644130241095     -2.60209487684223        -2.6911577523384835      2.1942421570677872
0                         0                        26.26118372847383        -0.4681513173436922      -2.6244200851716855      -2.6826692590640135      2.130990980363322
0                         0                        26.239160652692668       -0.46810454056817324     -2.6293627850205397      -2.680789945160001       2.116987456771774
0                         0                        26.205034140244827       -0.46803266543481503     -2.6370218926579554      -2.6778777983746096      2.0952878800681134
0                         0                        26.478446891616382       -0.46862931044983175     -2.0912453956269452      -2.711788916709221       2.318907601301368
0                         0                        26.140089957118164       -0.46789792961666465     -2.651597495416972       -2.6723358610200165      2.0539926763650698
0                         0                        27.102101712922018       -0.4701881404202628      -2.1204942849682453      -2.7916494712507216      2.6801076140947657
0                         0                        27.121336689640284       -0.47023979936909666     -2.121396389283518       -2.794112557969285       2.6912478692476327
0                         0                        27.07062763547538        -0.47010407337192744     -2.119018177068618       -2.78761913717382        2.6618788811675245
0                         0                        26.717324295605994       -0.46919976939855834     -2.1024485460184295      -2.7423777637739377      2.4572574038354276
0                         0                        26.71240702296744        -0.4691876933959597      -2.1022179300457005      -2.7417480947545663      2.45440948399375
0                         0                        26.656807524244446       -0.4690521246490038      -2.0996103600727096      -2.7346284403422807      2.422208113998714
0                         0                        27.257722160569816       -0.47061223301469207     -2.127792753763771       -2.8115770575093393      2.770237772254262
0                         0                        26.620388345174497       -0.46896429390864625     -2.0979023310442866      -2.7299648736751063      2.4011153436126733
0                         0                        27.300275967820482       -0.47071892489230893     -2.2527325648975136      -2.658726489901568       2.4979634222805487
0                         0                        27.369980972027424       -0.47089198820378025     -2.251853898835577       -2.6311167302669958      2.4676287454649355
0                         0                        28.1751428071899         -0.4725733617157677      -2.2050933246287343      -2.40647310937851        1.8427662215103382
0                         0                        28.58035499569628        -0.4732967850382279      -2.1682575348229136      -2.3652105519834095      1.7278239185688307
0                         0                        28.599454184692608       -0.4733297333372769      -2.1852306446273104      -2.3293425727237427      1.7560548727612204
0                         0                        29.48815267648345        -0.4749851911865954      -2.1847651759429993      -1.8377978333992644      1.9695232948864394
0                         0                        29.532940594740253       -0.47507364295387794     -2.1847417176232256      -1.8130253534099907      1.980281506280841
0                         0                        28.638402999372875       -0.47339831178860337     -2.1852102446223824      -2.307799737739934       1.7654105114736467
0                         0                        28.702385330975442       -0.47351175853440003     -2.1851767329512626      -2.272410706702388       1.7807792867076238
0                         0                        29.17290183086324        -0.47437623338243035     -2.184930293131117       -2.0121650638645363      1.8937989618198552
0                         0                        29.43248692231456        -0.4748759283433499      -2.1847943316865326      -1.8685869130197048      1.95615219004201
0                         0                        29.774072079067267       -0.47555813441403216     -2.184615421521869       -1.679654009021192       2.038202114855605
0                         0                        29.96648327112482        -0.4759547537262448      -2.184514643378023       -1.573230165482947       2.0844199423271244
0                         0                        30.33790235359403        -0.4767455153563867      -2.1843201072634315      -1.3677959290586514      2.1736360782992907
0                         0                        32.70441970614992        -0.4808712211935461      0.6083950541289767       -0.0963616938248606      3.059642523909332
0                         0                        32.710695551525795       -0.48089041725583614     -1.318648159314364       -0.8885456892246566      1.6825023866518336
0                         0                        32.83306293206291        -0.4811013450701541      -1.2571087576157538      -0.8711620055576077      1.7649492690409545
0                         0                        32.89139834233913        -0.4812054505281336      -1.227771476467069       -0.8628747944201649      1.8042536383023133
0                         0                        32.79563995355773        -0.4810357672087093      -1.2759290322418053      -0.8764783669714973      1.73973496851481
0                         0                        33.15240974533458        -0.48169933208644794     -1.0965070373138275      -0.8257951442448359      1.980114037949157
0                         0                        33.60268460939276        -0.4826592297546916      -0.8700606950579797      -0.7618284583053736      2.2834935709331745
0                         0                        32.69715538680681        -0.48086272149030734     -0.4543201142559212      0.07569720295953175      1.5076451540116977
0                         0                        31.101992219224496       -0.4782016435704245      -1.5455185725380929      -0.897448502224055       1.8287883519298127
0                         0                        31.590253499287872       -0.47907057249113216     -1.2115151508997322      -0.5995796839381278      1.73049007618868
0                         0                        31.843397993992294       -0.47950218591992266     -1.0383473596932689      -0.44514627999612344     1.6795262411297927
0                         0                        32.399267097562486       -0.4804046792069438      -0.6580956580809385      -0.10603261327098323     1.5676169486057887
0                         0                        31.059345013961657       -0.4781234677765669      -1.5746921176515958      -0.9234658686496608      1.8373742196071028
0                         0                        30.841956263617895       -0.4777192862406724      -1.7234005846246099      -1.0560861128049552      1.8811395972785299
0                         0                        30.34250368707155        -0.4767546359084823      -2.0650596027038546      -1.360782296672852       1.9816909395488125
0                         0                        34.39172094629544        -0.48293216620594126     0.7377113665500443       -0.5810820341675935      -0.8269761850440602
0                         0                        34.393028131825645       -0.48293108310941524     0.7376113239123563       -0.5830856748912936      -0.8301665862013294
0                         0                        34.3857233237944         -0.4829370821997668      -1.2407745289206105      -0.8843293938373051      1.0732522059318867
0                         0                        34.34694964887076        -0.48289684758808554     -1.2355528566465637      -0.9023124453191542      1.0021049409250438
0                         0                        34.36917951956587        -0.4829195776342309      -1.2385465656435457      -0.892002333885813       1.0428953613463037
0                         0                        34.21924315611441        -0.4827838352300324      -1.2183545525464154      -0.9615421272705476      0.7677715252472979
0                         0                        34.45463698593526        -0.482975627426691       0.23797642250480067      0.2311354230297411       0.7163214901632102
0                         0                        34.4678655186167         -0.48298508428782294     0.2369869855806357       0.22561380847902512      0.7134457198038433
0                         0                        35.493876965918254       -0.48360266381085915     0.16024577512166882      -0.20264530936693603     0.4903995680058344
0                         0                        35.87853693237806        -0.48377521791261874     0.13147487639635358      -0.3632031065922936      0.4067777668113486
0                         0                        35.491091100591994       -0.48360129678011415     0.16045414577667216      -0.201482483912919       0.49100519140514365
0                         0                        35.13578253210185        -0.4834131162237011      0.18702968711596668      -0.053176015690795       0.5682462486185216
0                         0                        35.48745783787888        -0.4835995113944114      0.16072589808436533      -0.19996595318746557     0.49179503178046957
0                         0                        36.621291332654266       -0.48401738817616846     -1.0397046028299428      0.44772649956607324      0.8283542514184745
0                         0                        34.39588367491047        -0.4829331659549488      0.24237091558612534      0.2556591661283818       0.7290939596750832
0                         0                        39.21163473629034        -0.4834857506950252      0.4238437458098048       -1.082449301608786       -0.6553507232820195
0                         0                        39.27569883136175        -0.48344305307389196     0.42864000446326855      -1.1055641605731503      -0.6776149913099445
0                         0                        39.34301213823915        -0.48339665322211434     0.43367952043924163      -1.1298513622132522      -0.7010084616226635
0                         0                        40.49359301510105        -0.48236004911262004     0.5198195569283683       -1.5449905234868035      -1.100871146043474
0                         0                        37.948495082008          -0.4840363034280035      0.32927682044305584      -0.6266979961635322      -0.21637035856636544
0                         0                        38.36327834326299        -0.4839166611007729      0.3603302178860588       -0.7763552507299503      -0.36052045842771463
0                         0                        38.64059803388065        -0.4838033180272027      0.3810921901641109       -0.8764145043493814      -0.456897686802634
0                         0                        38.99654756788869        -0.483618669398447       0.4077409086196013       -1.0048440602159014      -0.5806012343316098
0                         0                        40.60290258071548        -0.48223763711383394     0.5103382462298907       -1.5856502698670383      -1.1644502551941827
0                         0                        40.639382522061915       -0.4821959736146957      0.5176574402250629       -1.5717244902836498      -1.1197364841683708
0                         0                        41.19665730887012        -0.4817622977575729      0.6294668928368825       -1.358991531785449       -0.4366800894457228
0                         0                        42.48055813027606        -0.4811744295162613      0.23151486318460357      -0.8707694376156496      -0.23496934469235953
0                         0                        42.60028845661373        -0.48103265334407286     1.0858815765693066       -1.043562738991639       -1.0835389051828255
0                         0                        41.394049611359485       -0.4817133952117343      0.5667626266384502       -1.3349506688877         -0.19427417983339978
0                         0                        41.47394327291438        -0.4816996029338288      0.5446680015396339       -1.3692863179111896      -0.15099170577011023
0                         0                        41.52904372075478        -0.4816921056173732      0.5294299499329753       -1.3929666650284673      -0.12114098096775194
0                         0                        41.911600187336234       -0.4814132706846121      0.4346700391718775       -1.1876563128888264      -0.6046047268702051
0                         0                        42.10558513183881        -0.4813082100785443      0.36540473401479234      -1.0796144379553354      -0.47857836589262703
0                         0                        41.64123413401125        -0.48160048003374534     0.5312083928863938       -1.3382394181626793      -0.780253666635943
0                         0                        41.686652396856346       -0.4815657123441698      0.514991104252242        -1.3129432577488878      -0.7507467458643564
0                         0                        42.193946176969824       -0.48126845860309875     0.3338540651177615       -1.0304008610383733      -0.42117277187306
0                         0                        42.417133030077885       -0.4811906392000036      0.25416176978401195      -0.9060946880407243      -0.27617478253244343
0                         0                        45.54904621938398        -0.4789799231855322      -1.5433059694674398      -2.5011246540801295      0.3793084257687269
0                         0                        45.59251102333595        -0.4789966642721177      -1.5785935782336082      -2.4767704581010292      0.3910199808312882
0                         0                        45.899748566442995       -0.47912951760481515     -2.0671590046926553      -2.41233289936293        -0.06455720538217946
0                         0                        45.379580651670196       -0.4792132974620763      -2.91644125214799        0.4174370902537863       -1.5528021443820208
0                         0                        45.41220657027761        -0.4791643088684009      -2.8305864837984203      0.2925732899425384       -1.4718626955142895
0                         0                        43.16292875195725        -0.4804811437081121      0.7993212970874026       -0.9687398817741695      -0.8768952852763938
0                         0                        43.18769517289312        -0.4804595387890716      0.7617190264370208       -0.9778197751036177      -0.8709488381371031
0                         0                        43.15465230294471        -0.48048841386632096     0.8035366040282383       -0.9698405273693425      -0.8799350166963613
0                         0                        43.7166444072365         -0.48007975865096364     0.8386744387147544       -0.7459971868460564      -0.5650306980820652
0                         0                        43.741534227088046       -0.4800658742837013      0.8422955921710908       -0.735088725155203       -0.5506356542839903
0                         0                        43.86564558429617        -0.4800019884948351      0.8603522222637707       -0.6806944389136247      -0.47885576863212975
0                         0                        44.236588973498954       -0.47986415034889646     0.9143197858676757       -0.5181210745929326      -0.2643204137762325
0                         0                        44.861622676727194       -0.47981191247858984     -1.362475728312246       -0.3260662245678887      -0.7586402716924638
0                         0                        45.13730599866095        -0.4795445033103464      -2.189574447718412       0.0696636871519658       -1.181333219397926
0                         0                        45.24677895689276        -0.47940599174978        -2.5180126823132882      0.2268067591118692       -1.3491832260086571
0                         0                        45.114612162586475       -0.47957091747168973     -2.1214889261716126      0.037087796512926374     -1.146537772224061
0                         0                        44.92566927491093        -0.47976017946857424     -1.554626849274218       -0.23413046847130303     -0.8568400655243664
0                         0                        45.01701680845304        -0.4796755122152373      -1.8286856043836934      -0.10300555626805519     -0.9968991664801621