% Model:              AluminaWithRodsOriginalParts.mph
% Version:            COMSOL 5.5.0.292
% Date:               Mar 9 2026, 17:19
% Dimension:          1
% Nodes:              1000
% Expressions:        5
% Description:        Electric field norm, Electric potential, Electric field, x component, Electric field, y component, Electric field, z component
% cln2x                   es.normE (V/m)           V (V)                    es.Ex (V/m)              es.Ey (V/m)              es.Ez (V/m)
0.1075                    8.05485856560657         -0.8843314436829177      -1.1538734134380633      0.9937744514302409       7.909597650789252
0.3225                    7.929597902504126        -0.8860171832786568      -1.2308867233520857      0.9818888274578725       7.771700914226358
0.5375                    7.805541296713539        -0.887673275076035       -1.3079000332662147      0.9700032034855255       7.633804177663357
0.7525000000000001        7.682747075742743        -0.8892997190750521      -1.3849133431802394      0.958117579512642        7.495907441100366
0.9674999999999999        7.561276742773038        -0.890896515275708       -1.4619266530944905      0.9462319555406751       7.358010704537339
1.1824999999999999        7.441195131670633        -0.892463663678003       -1.5389399630086231      0.9343463315682428       7.2201139679743775
1.3975                    7.322570563007652        -0.894001164281937       -1.61595327292261        0.9224607075955475       7.082217231411306
1.6125                    7.205474999518678        -0.8955090170875099      -1.692966582836661       0.9105750836227458       6.944320494848469
1.8275000000000001        7.089984199064416        -0.896987222094722       -1.7699798927506265      0.8986894596506829       6.806423758285575
2.0425                    7.624282629067608        -0.8984340372318738      -3.3250309470096795      1.5577088256019351       6.681870847597388
2.2575000000000003        7.746912349053598        -0.8998797015346578      -3.4088432201995147      1.6165993612274576       6.766169178294163
2.4725                    7.869867462778489        -0.9013434899785404      -3.492655493389634       1.67548989685298         6.8504675089907785
2.6875                    7.993132954057456        -0.902825402563523       -3.5764677665794125      1.734380432478332        6.934765839687309
2.9025                    8.116694682106843        -0.904325439289606       -3.6602800397690487      1.7932709681037124       7.019064170383839
3.1175                    8.2405393212829          -0.9058436001567886      -3.744092312958827       1.8521615037292918       7.103362501080422
3.3325                    8.36465430549538         -0.9073798851650708      -3.8279045861484917      1.9110520393551553       7.18766083177707
3.5475000000000003        8.48902777690343         -0.9089342943144527      -3.9117168593385543      1.9699425749803083       7.2719591624736495
3.7625                    8.613648538534495        -0.9105068276049343      -3.9955291325283326      2.0288331106058024       7.356257493170315
3.9774999999999996        8.738506010498462        -0.9120974850365159      -4.079341405717997       2.0877236462312396       7.440555823866884
4.1925                    8.863590189500238        -0.9137062666091972      -4.163153678907747       2.1466141818567905       7.524854154563599
4.4075                    8.988891611375315        -0.9153331723229782      -4.246965952097611       2.2055047174821425       7.609152485260179
4.6225                    9.114401316404003        -0.9169782021778591      -4.330778225287503       2.2643952531077787       7.693450815956751
4.8374999999999995        9.24011081717344         -0.9186413561738397      -4.414590498477168       2.3232857887333154       7.7777491466535835
5.0525                    9.366012068782556        -0.9203226343109199      -4.498402771667003       2.38217632435871         7.8620474773499005
5.2675                    10.778767944279814       -0.9223231424437441      -4.957816149260751       2.7644638760992066       9.162949137941666
5.4825                    10.578475262805418       -0.924254565041171       -5.12436869659415        2.8528180136101575       8.8037726985863
5.6975                    10.390165889599245       -0.9261087647041362      -5.290921243927713       2.941172151121119        8.444596259230849
5.9125                    10.214502600687384       -0.92788574143264        -5.457473791261041       3.0295262886320478       8.085419819875497
6.1275                    10.052148396435578       -0.9295854952266828      -5.624026338594621       3.117880426142861        7.72624338052016
6.342499999999999         9.903757833616885        -0.931208026086264       -5.790578885928213       3.206234563653698        7.367066941164751
6.5575                    9.769967190750656        -0.9327533340113836      -5.9571314332616865      3.294588701164564        7.007890501809271
6.7725                    9.651383653560474        -0.9342214190020417      -6.123683980595153       3.382942838675497        6.6487140624537915
6.9875                    9.548573809032474        -0.9356122810582386      -6.290236527928634       3.4712969761864017       6.289537623098568
7.202500000000001         9.462051837911103        -0.9369259201799741      -6.456789075262037       3.5596511136973277       5.930361183743116
7.4175                    9.392267884730849        -0.9381623363672483      -6.623341622595518       3.6480052512081755       5.571184744387665
7.632499999999999         9.339597148283799        -0.939321529620061       -6.7898941699291555      3.736359388718938        5.212008305032214
7.847499999999999         9.304330260925198        -0.9404034999384122      -6.956446717262594       3.8247135262298997       4.852831865676876
8.0625                    9.286665502480341        -0.9414082473223018      -7.122999264596075       3.913067663740847        4.493655426321425
8.2775                    9.286703319477768        -0.9423357717717304      -7.289551811929272       4.001421801251894        4.134478986966087
8.4925                    6.041337304284017        -0.9431905974343877      -1.3433700555034136      1.2565356534571208       5.7544966304361935
8.7075                    5.6979536536243245       -0.9443952677368453      -1.3716289783838818      0.9294377233109117       5.451738741263654
8.922500000000001         5.369776827553697        -0.9455348450931309      -1.3998879012640515      0.6023397931649939       5.1489808520907445
9.137500000000001         5.05976663896528         -0.9466093295032443      -1.4281468241446973      0.27524186301879183      4.846222962917963
9.3525                    4.771465354375707        -0.9476187209671857      -1.4564057470249239      -0.051856067127076244    4.54346507374521
9.567499999999999         4.509039003978516        -0.9485630194849547      -1.4846646699054062      -0.3789539972733067      4.2407071845725
9.782499999999999         4.277252830375832        -0.949442225056552       -1.5129235927858815      -0.7060519274193702      3.9379492953994877
9.9975                    4.081330510346776        -0.9502563376819766      -1.5411825156662236      -1.0331498575654061      3.6351914062267454
10.2125                   3.926644065685904        -0.9510053573612295      -1.5694414385467903      -1.3602477877115051      3.3324335170539356
10.4275                   3.8182085362973095       -0.9516892840943099      -1.597700361427016       -1.687345717857589       3.02967562788119
10.6425                   3.760027547623851        -0.9523081178812182      -1.6259592843074806      -2.0144436480035957      2.7269177387083943
10.8575                   3.754438149083941        -0.9528618587219545      -1.6542182071880163      -2.341541578149787       2.4241598495355703
11.0725                   3.8016723156884122       -0.9533505066165183      -1.682477130068385       -2.66863950829584        2.121401960362789
11.2875                   3.899811136531337        -0.9537740615649104      -1.7107360529486613      -2.9957374384416795      1.8186440711899508
11.5025                   4.045151335800394        -0.9541325235671301      -1.7389949758290584      -3.322835368587846       1.5158861820171978
11.7175                   4.232833528809132        -0.9544258926231777      -1.767253898709555       -3.6499332987339557      1.213128292844459
11.932500000000001        4.4575125305332906       -0.954654168733053       -1.7955128215899094      -3.977031228879966       0.9103704036715214
12.1475                   4.713901161594492        -0.9548173518967564      -1.8237717444703065      -4.3041291590260045      0.6076125144989533
12.3625                   4.997120999823026        -0.9549154421142877      -1.8520306673508315      -4.631227089172114       0.30485462532607244
12.5775                   6.075232932200873        -0.9542660679615773      -2.8189475581302474      -3.459067478075383       -4.12272264736918
12.792499999999999        6.887927132802808        -0.9533301424178626      -3.6173983305081094      -3.6536192552584623      -4.583561480207596
13.0075                   7.7300787908429625       -0.9522951365250881      -4.415849102885971       -3.848171032441428       -5.044400313046143
13.2225                   2.509539204711953        -0.9525460882588962      -1.029960834676686       -0.2676086206906376      2.2727413678530297
13.4375                   2.1939138521117667       -0.9529934838656003      -1.1087657488937808      0.12361208593767259      1.8890782293960307
13.6525                   1.9853592823993258       -0.9533583918975368      -1.1875706631109466      0.5148327925658975       1.5054150909387722
13.8675                   1.9191059087899334       -0.9536408123547042      -1.2663755773280965      0.9060534991942717       1.1217519524820014
14.082500000000001        4.560194363983813        -0.953391746837633       0.540738141346818        0.08468767594525328      -4.527229052891571
14.297500000000001        4.648746168055884        -0.9524100606017969      0.5992029962537799       0.21955342005008305      -4.6047359316294205
14.512500000000001        4.741469991638349        -0.9514117103870323      0.6576678511607312       0.3544191641549972       -4.682242810367299
14.727500000000001        4.83812596746795         -0.9503966961933392      0.7161327060676612       0.48928490825992554      -4.759749689105192
14.9425                   4.938483220732453        -0.9493650180207172      0.7745975609745841       0.624150652364925        -4.837256567843042
15.157499999999999        5.042320756825295        -0.9483166758691663      0.8330624158815567       0.7590163964698124       -4.9147634465808
15.372499999999999        5.149428041720343        -0.9472516697386875      0.8915272707885151       0.8938821405747426       -4.992270325318703
15.587499999999999        5.259605322444625        -0.9461699996292796      0.9499921256954167       1.028747884679749        -5.069777204056553
15.802499999999998        5.372663732991963        -0.9450716655409432      1.0084569806022472       1.1636136287846632       -5.147284082794375
16.0175                   5.48842522738671         -0.943956667473678       1.0669218355093193       1.2984793728896342       -5.224790961532186
16.232499999999998        5.606722377138928        -0.9428250054274844      1.1253866904161498       1.4333451169945413       -5.302297840270054
16.447499999999998        5.727398065517544        -0.9416766794023618      1.1838515453231366       1.5682108610995797       -5.379804719007879
16.6625                   5.850305106262869        -0.9405116893983108      1.2423164002300098       1.7030766052043909       -5.457311597745765
16.8775                   5.975305809807915        -0.9393300354153313      1.3007812551370534       1.8379423493092801       -5.534818476483558
17.0925                   6.102271515917074        -0.9381317174534228      1.3592461100440687       1.972808093414379        -5.612325355221458
17.3075                   18.425567961311103       -0.9365042083581046      -2.126153978735829       8.606681748219728        -16.1525865804973
17.5225                   11.01659905662497        -0.9336721292343373      -6.986636389886684       2.9877421877540407       -7.976575916360105
17.7375                   11.543563343619342       -0.9319170004189566      -7.469941175407413       2.7799155821644526       -8.350203761594344
17.9525                   7.725640709253478        -0.930728960503947       -6.180797084547692       3.5699880895647738       -2.9560880921391686
18.1675                   7.896947519255645        -0.9301011401526483      -6.312552088750493       3.7676818321627223       -2.884101222266761
18.3825                   6.775915491020309        -0.9293150342176458      -4.154510930092272       3.1517322108755224       -4.32662151616276
18.5975                   6.179783283022042        -0.9283794044013594      -3.416598055689235       2.712788875650297        -4.376911658592988
18.8125                   7.964247602955496        -0.9269320821910366      -4.069093422883842       -0.35728446619569354     -6.836963244543668
19.0275                   7.7084994604997705       -0.9254946601980126      -4.088944368097934       -0.059839181276032605    -6.5343643271178
19.2425                   7.467811411736785        -0.9241223226944623      -4.108476960404634       0.2381368814609317       -6.231525910463546
19.4575                   7.243775944386432        -0.9228151213167362      -4.1276895155189415      0.5366465101431572       -5.9284466531375415
19.6725                   7.038078147336787        -0.9215731079907294      -4.146580335437541       0.8356925145160545       -5.62512520313674
19.8875                   6.85246772236835         -0.9203963349341615      -4.165147708290272       1.1352777261650502       -5.321560197789545
20.1025                   5.897899449940797        -0.9193716192950558      -1.4585335499002525      3.374115430475797        -4.612292582572408
20.3175                   5.786756665927117        -0.9184006215918484      -1.7091589483486302      3.320658020314653        -4.420244191450479
20.5325                   5.691484361645527        -0.9174709142927325      -1.959784346797477       3.2672006101535516       -4.228195800328486
20.747500000000002        5.612890744190677        -0.916582497397707       -2.2104097452459115      3.213743199992578        -4.036147409206549
20.962500000000002        5.551684205063296        -0.9157353709067734      -2.4610351436944597      3.1602857898315904       -3.844099018084549
21.177500000000002        5.508444359203468        -0.9149295348199304      -2.711660542143065       3.10682837967056         -3.6520506269626765
21.392500000000002        5.4835962418190025       -0.9141649891371795      -2.9622859405916415      3.0533709695093876       -3.460002235840591
21.6075                   5.47739016022303         -0.9134417338585192      -3.212911339040346       2.9999135593482436       -3.267953844718832
21.8225                   5.489889336815865        -0.9127597689839503      -3.4635367374887664      2.94645614918727         -3.0759054535968318
22.037499999999998        3.588914738118086        -0.9123451747317264      -1.4821088824097046      3.262404444958804        -0.20094649953782096
22.252499999999998        3.4534797327165836       -0.9122960114540957      -1.275988938400232       3.198849879334972        -0.25638631563148806
22.467499999999998        3.3274512627180752       -0.912234928616005       -1.0698689943911148      3.1352953137109836       -0.3118261317250415
22.6825                   3.2119367867256154       -0.9121619262174541      -0.8637490503814647      3.0717407480871657       -0.3672659478188649
22.8975                   3.108108800019071        -0.9120770042584427      -0.657629106371985       3.008186182463362        -0.422705763912532
23.1125                   3.0171740218734455       -0.9119801627389718      -0.4515091623627896      2.94463161683953         -0.4781455800061849
23.3275                   2.9403289303165483       -0.9118714016590403      -0.2453892183533668      2.8810770512156108       -0.5335853960999515
23.5425                   2.8787020917980546       -0.9117507210186486      -0.03926927434397065     2.817522485591782        -0.5890252121935848
23.7575                   2.8332867173770784       -0.9116181208177969      0.16685066966561024      2.7539679199678986       -0.6444650282871862
23.9725                   2.804870386860232        -0.9114736010564853      0.37297061367483764      2.690413354344045        -0.6999048443807965
24.1875                   2.793971819110412        -0.9113171617347132      0.5790905576843883       2.6268587887202415       -0.7553446604743783
24.4025                   2.8007955190549243       -0.9111488028524812      0.7852105016935909       2.5633042230965515       -0.8107844765679886
24.6175                   2.825213076532168        -0.9109685244097889      0.9913304457030847       2.4997496574723925       -0.8662242926616273
24.8325                   4.093098058852601        -0.9107269085114722      1.021840544347441        3.7554112204771712       -1.2673516427672382
25.047500000000003        4.046287522524806        -0.9104688425476529      0.6140839191989755       3.8355000916504736       -1.1332619741570653
25.2625                   4.0463258858165565       -0.9102396058625847      0.20632729405045325      3.9155889628237475       -0.9991723055468498
25.4775                   4.093211831465772        -0.9100391984562677      -0.20142933109822536     3.9956778339970356       -0.8650826369367621
25.6925                   4.185371248050226        -0.9098676203287017      -0.6091859562464137      4.075766705170324        -0.7309929683264329
25.9075                   4.319907560873728        -0.9097248714798873      -1.0169425813950213      4.1558555763437255       -0.596903299716459
26.1225                   4.493015651955028        -0.9096109519098241      -1.424699206543579       4.2359444475169          -0.4628136311062079
26.3375                   4.70043587624222         -0.9095258616185117      -1.8324558316919912      4.316033318690192        -0.32872396249605984
26.5525                   4.93784615681264         -0.909469600605951       -2.240212456840357       4.39612218986349         -0.19463429388593312
26.7675                   5.201141352988505        -0.909442168872141       -2.6479690819887933      4.476211061036861        -0.06054462527576643
26.9825                   5.486596170934753        -0.9094435664170819      -3.0557257071371864      4.556299932210102        0.07354504333434875
27.1975                   5.7909345684267315       -0.9094737932407743      -3.4634823322857073      4.636388803383529        0.20763471194456606
27.4125                   6.1113360464316555       -0.9095328493432182      -3.871238957434347       4.716477674556732        0.3417243805546377
27.6275                   6.445405559991022        -0.909620734724413       -4.278995582582837       4.796566545730087        0.4758140491648746
27.8425                   6.791126331974768        -0.9097374493843593      -4.686752207731047       4.876655416903411        0.6099037177750688
28.0575                   7.146807703069539        -0.9098829933230561      -5.094508832879569       4.95674428807672         0.7439933863852275
28.2725                   7.511034768671937        -0.9100573665405045      -5.502265458028077       5.036833159249952        0.8780830549953222
28.4875                   7.882623022286087        -0.9102605690367044      -5.910022083176358       5.116922030423325        1.0121727236054454
28.7025                   7.876169684989381        -0.9104559127287136      -5.953173758690326       5.129478005034329        0.5312499425464967
28.9175                   7.718856250959789        -0.9105855109603533      -5.469846527938415       5.404333452017298        0.6743150029384353
29.1325                   7.601754496145821        -0.9107458681799776      -4.986519297186703       5.67918889900028         0.8173800633302815
29.347500000000004        7.526741505911937        -0.9109369843875854      -4.503192066434707       5.954044345983249        0.9604451237222875
29.562500000000004        7.495081097254232        -0.9111588595831778      -4.0198648356829665      6.228899792966146        1.1035101841141106
29.777500000000003        7.507321778935128        -0.9114114937667543      -3.536537604931226       6.503755239949115        1.2465752445060954
29.992500000000003        7.563250399860126        -0.9116948869383156      -3.053210374179372       6.77861068693214         1.3896403048980694
30.207500000000003        7.661910310748017        -0.9120090390978608      -2.569883143427262       7.053466133915052        1.5327053652899671
30.422499999999996        7.801680542637398        -0.91235395024539        -2.0865559126755784      7.328321580898006        1.6757704256819004
30.637499999999996        7.980401346376135        -0.9127296203809038      -1.6032286819238095      7.603177027881003        1.8188354860738443
30.8525                   8.195524918488637        -0.9131360495044019      -1.119901451171927       7.878032474863801        1.9619005464657313
31.0675                   8.444269560498054        -0.913573237615884       -0.6365742204202718      8.152887921846883        2.1049656068576343
31.2825                   8.723759786444868        -0.9140411847153507      -0.15324698966838923     8.427743368829852        2.2480306672495907
31.4975                   9.031141560914985        -0.9145398908028014      0.33008024108355016      8.70259881581282         2.3910957276415132
31.7125                   9.363668493461017        -0.9150693558782366      0.8134074718353759       8.977454262795817        2.5341607880334056
31.9275                   9.718759905360212        -0.9156295799416555      1.2967347025872868       9.252309709778785        2.677225848425252
32.1425                   10.094034734490231       -0.9162205629930594      1.7800619333390841       9.527165156761725        2.820290908817338
32.3575                   10.487326495566252       -0.9168423050324475      2.26338916409091         9.802020603744637        2.963355969209136
32.5725                   10.896684519089861       -0.9174948060598194      2.746716394842565        10.076876050727662       3.1064210296009414
32.7875                   11.320366013208087       -0.9181780660751755      3.2300436255945613       10.35173149771066        3.2494860899929616
33.0025                   4.291570928688258        -0.9188601172988575      -3.4833699456367384      -0.1392439312685383      2.502863557088517
33.2175                   4.253602340345894        -0.9194127708166345      -3.3219199098251266      0.31370773595165247      2.6380993989816943
33.4325                   4.274075902847043        -0.9199945000404196      -3.160469874013401       0.7666594031722127       2.773335240874985
33.6475                   4.352166919646594        -0.9206053049702119      -2.999019838201569       1.2196110703924177       2.908571082768276
33.8625                   4.4848666746407915       -0.9212451856060101      -2.837569802389879       1.6725627376127221       3.0438069246616237
34.0775                   4.667519834109695        -0.9219141419478163      -2.6761197665782177      2.1255144048330266       3.179042766554744
34.292500000000004        4.89453714195505         -0.9226121739956286      -2.514669730766279       2.578466072053061        3.3142786084480917
34.5075                   5.1600665098252145       -0.9233392817494481      -2.353219694954703       3.0314177392736          3.4495144503414394
34.722500000000004        5.458490547516471        -0.9240954652092749      -2.1917696591428104      3.4843694064939044       3.5847502922347303
34.9375                   5.7847205505971395       -0.9248807243751093      -2.0303196233311134      3.937321073714209        3.7199861341278506
35.1525                   6.134321866298081        -0.9256950592469503      -1.868869587519434       4.390272740934467        3.855221976021028
35.3675                   6.503526565629901        -0.9265384698247983      -1.707419551707602       4.843224408154727        3.990457817914475
35.5825                   6.889183619270956        -0.9274109561086534      -1.545969515895881       5.2961760753750315       4.125693659807652
35.7975                   7.288681925415325        -0.9283125180985156      -1.3845194800840788      5.7491277425953164       4.26092950170085
36.0125                   7.6998673754416975       -0.9292431557943849      -1.2230694442723733      6.2020794098156244       4.396165343594319
36.2275                   8.120964912408509        -0.9302028691962612      -1.0616194084606025      6.6550310770358685       4.531401185487411
36.4425                   8.550510203340018        -0.9311916583041444      -0.9001693726489073      7.107982744256379        4.666637027380659
36.657500000000006        8.987292055226591        -0.9322095231180347      -0.738719336837125       7.560934411476566        4.8018728692741774
36.8725                   7.699193244368455        -0.932969059568858       -0.6567403400436405      7.099046866650834        2.906854369414333
37.0875                   5.765878982586635        -0.9333559500657629      -1.5427817320531716      5.430536637320472        1.1723722957309075
37.302499999999995        5.551654171356712        -0.9336012512075249      -1.5671842282279442      5.2090123888479525       1.1094987904294964
37.5175                   5.338877292010657        -0.9338330345456477      -1.5915867244026316      4.987488140375177        1.0466252851280178
37.732499999999995        5.127728595026819        -0.9340513000801302      -1.6159892205775748      4.765963891902771        0.9837517798264912
37.9475                   4.918417779496075        -0.9342560478109732      -1.6403917167521627      4.5444396434303655       0.9208782745251849
38.1625                   4.711189814406754        -0.9344472777381759      -1.6647942129270632      4.3229153949578745       0.8580047692237578
38.3775                   4.5063320544957435       -0.9346249898617391      -1.6891967091017932      4.101391146485383        0.7951312639223875
38.5925                   4.30418294310101         -0.9347891841816623      -1.7135992052766085      3.879866898012949        0.7322577586208467
38.8075                   4.1051426448158015       -0.9349398606979463      -1.7380017014512816      3.658342649540316        0.6693842533194694
39.0225                   3.9096859931700267       -0.9350770194105901      -1.762404197626097       3.436818401067825        0.6065107480180494
39.2375                   3.7183781545716164       -0.935200660319594       -1.7868066938008553      3.2152941525955896       0.5436372427165761
39.4525                   3.5318933647403083       -0.935310783424958       -1.8112091899756706      2.9937699041227006       0.4807637374152183
39.6675                   3.3510369266392135       -0.9354073887266824      -1.8356116861503438      2.7722456556502664       0.4178902321137752
39.8825                   3.1767702673946143       -0.9354904762247671      -1.8600141823251306      2.550721407177832        0.35501672681236407
40.0975                   3.01023807766152         -0.9355600459192117      -1.8844166785000027      2.3291971587050284       0.29214322151089256
40.3125                   2.8527951803286133       -0.9356160978100168      -1.908819174674818       2.107672910232793        0.2292697162094086
40.5275                   2.7060285478736166       -0.9356586318971819      -1.933221670849548       1.8861486617602736       0.16639621090819823
40.7425                   2.5717666626673643       -0.9356876481807073      -1.9576241670243064      1.6646244132877257       0.10352270560663612
40.9575                   2.452064464243828        -0.9357031466605926      -1.9820266631991217      1.4431001648152062       0.040649200305182376
41.1725                   2.349148699147664        -0.9357051273368384      -2.006429159373795       1.221575916342971        -0.02222430499610617
41.3875                   6.862471881641608        -0.9353623348209722      -4.228154223573071       4.996208773872027        -2.062554260107376
41.6025                   6.794371895252973        -0.9349261830332303      -4.226088838953345       4.932032795479692        -1.9946716723787432
41.8175                   6.726880429377945        -0.9345046260018495      -4.2240234543334765      4.867856817087194        -1.9267890846500109
42.0325                   6.6600159839717366       -0.9340976637268305      -4.221958069713409       4.8036808386949446       -1.8589064969212075
42.2475                   6.593797633976902        -0.9337052962081732      -4.219892685093708       4.739504860302681        -1.7910239091925249
42.4625                   6.5282450401606384       -0.9333275234458774      -4.217827300473655       4.675328881910335        -1.7231413214638422
42.6775                   6.4633784591644          -0.9329643454399437      -4.215761915853724       4.611152903517855        -1.6552587337351738
42.892500000000005        6.399218752618717        -0.9326157621903716      -4.213696531234017       4.546976925125415        -1.5873761460065108
43.1075                   6.335787395170897        -0.9322817736971606      -4.211631146613882       4.482800946733021        -1.5194935582778202
43.322500000000005        6.273106481259325        -0.931962379960312       -4.209565761994169       4.4186249683408825       -1.4516109705491793
43.5375                   6.211198730445664        -0.9316575809798252      -4.207500377374288       4.354448989948338        -1.3837283828204718