% Model:              AluminaWithRodsOriginalRydberg.mph
% Version:            COMSOL 5.5.0.292
% Date:               Mar 10 2026, 10:24
% Dimension:          3
% Nodes:              695
% Expressions:        4
% Description:        Electric potential, Electric field, x component, Electric field, y component, Electric field, z component
% Length unit:        mm
% x                       y                        z                        V (V) @ Length=0.161     es.Ex (V/m) @ Length=0.161 es.Ey (V/m) @ Length=0.161 es.Ez (V/m) @ Length=0.161
0                         0                        1.150852346594904        -0.44795959465187873     -1.0773265444995133      -1.2669034920734674      7.794492812021528
0                         0                        2.268779918617421        -0.4552727847361401      -1.1064093693827317      -1.7175322993312925      5.288984628346976
0                         0                        0.032924774572387606     -0.4378454278871597      -1.0482437196161811      -0.8162746848154967      10.300000995696193
0                         0                        0                        -0.43750508789586273     -1.0473871833994508      -0.803002937820402       10.3737922628599
0                         0                        3.3867074906399375       -0.4603607631077554      -2.0788802720285275      -0.2058577646599531      4.043422755529576
0                         0                        4.504635062662456        -0.46431329230364        -2.3718327461000577      0.25338150434408035      3.0277494649281422
0                         0                        5.6225626346849715       -0.4671303723237942      -2.66478522017146        0.7126207733482488       2.0120761743264666
0                         0                        8.579436754153061        -0.46955556931654646     -1.9015811991248626      -1.017372256731825       0.1480075040170874
0                         0                        8.803352794676842        -0.46925841678152924     -0.9657088291217804      -0.31320910675299274     -2.379400606210993
0                         0                        6.5374773508185235       -0.4684655422410218      -2.146178990776228       -1.1582646632481186      1.1626814560031704
0                         0                        6.575200960963441        -0.46850894135919846     -2.142965716394471       -1.1527594400650543      1.1382180607739798
0                         0                        7.452392066952073        -0.4692578810723399      -2.0682471065374983      -1.0247459017514586      0.5693681380106383
0                         0                        7.527839287241909        -0.46929899262050556     -2.0618205577738067      -1.0137354553853868      0.5204413475523069
0                         0                        6.6853038803745575       -0.4686303317792253      -2.13358721606145        -1.1366914883995491      1.0668173856242298
0                         0                        7.748045126064137        -0.4693978739984373      -2.0430635571079634      -0.9815995520543339      0.37763999725267183
0                         0                        6.736543989128215        -0.4686841442966393      -2.129222614472525       -1.1292137249106702      1.0335886721683423
0                         0                        7.850525343571455        -0.4694331693417126      -2.0343343539300136      -0.966644025076647       0.3111825703410247
0                         0                        6.965508806810287        -0.4689038012229541      -2.1097195292650923      -1.0957995734665928      0.8851072090472449
0                         0                        7.985717004466883        -0.4694693124712954      -2.0228188097147424      -0.9469147292098654      0.2235120897198506
0                         0                        8.367306783085622        -0.4695073888177489      -1.7451847691766673      -0.9924166048405425      0.306247013205855
0                         0                        9.4653860785552          -0.46905444644111327     -1.6342760878348912      -0.8435441926337859      -0.5246570404055078
0                         0                        9.572477189385479        -0.46899450882907795     -1.6398889034725386      -0.9075265134890742      -0.5947190043536352
0                         0                        9.577556093914788        -0.4689914798700434      -1.6401550969459748      -0.9105609399382928      -0.5980417640417528
0                         0                        9.613597108843136        -0.4689695009318497      -1.6420440639256952      -0.9320938922369066      -0.6216207919274908
0                         0                        9.646512652436826        -0.46894868553966745     -1.6437692199762068      -0.9517595101860934      -0.6431550500999705
0                         0                        9.449056365777563        -0.4690629267118763      -1.6334202215866611      -0.8337878934012224      -0.5139736910681307
0                         0                        9.652359192392893        -0.4689458823277371      -1.8797306208074076      -0.8388241905042193      -0.47912740770126305
0                         0                        9.70799857988997         -0.4689194027861859      -1.538972559347279       0.11651924996988328      0.196745770140069
0                         0                        10.818687394769038       -0.4686604032385309      -2.3668927524037215      -0.6471422545331791      -0.6640459213876433
0                         0                        11.669622771449284       -0.4678349716693033      -2.1260091855195142      -0.8737251662478798      -1.2760110837590837
0                         0                        11.771833630939435       -0.46770079288619226     -2.097075241670211       -0.9009413741843062      -1.3495178234458898
0                         0                        10.473994404777644       -0.4688465718894159      -2.464468760152954       -0.555359090428972       -0.4161538870815562
0                         0                        11.873267763663186       -0.4675602060003687      -2.0683611743461974      -0.9279507591147649      -1.422465966399507
0                         0                        12.015384479131566       -0.4673507872374072      -2.1414300669689013      -0.9518614304237971      -1.6330178702529992
0                         0                        9.724647287663384        -0.4689225727503786      -1.5431495499039016      0.10862380629242807      0.1840602642702578
0                         0                        12.115016841356544       -0.46718281677034657     -2.1496618022489216      -0.9604383827699294      -1.7387875012038663
0                         0                        13.54912966572711        -0.46487827319329605     -3.0666178062404335      -1.5611691118834372      -1.8093960455820692
0                         0                        13.716001900233556       -0.4645724042581309      -3.1535808904860545      -1.5992152685864482      -1.8565096225470157
0                         0                        12.971422073051002       -0.46587646122505566     -2.7655537364758036      -1.4294542483260066      -1.6462899949477894
0                         0                        12.971471233980498       -0.4658763802915681      -2.7655793559928856      -1.429465456807936       -1.6463038747118084
0                         0                        12.818454180652076       -0.4661249875533756      -2.6858367017462506      -1.3945782222336014      -1.6031020758009689
0                         0                        13.730709234335636       -0.4645450694157081      -3.161245407823653       -1.602568477942107       -1.8606619916886586
0                         0                        13.730750395204097       -0.46454499282900547     -3.1242152991433443      -1.5578875310563802      -1.7318874226173264
0                         0                        14.190112098910241       -0.4637501724742382      -3.3938660655780097      -1.6431301413103512      -1.7286551013011362
0                         0                        14.411252275446271       -0.46336806943407544     -3.523677971122801       -1.6841665745347285      -1.727099037526827
0                         0                        14.18913824973489        -0.4637518559269198      -3.3932944045658076      -1.6429494265380384      -1.728661953838916
0                         0                        13.742404445126244       -0.4645248098043639      -3.131056364622303       -1.5600501441505301      -1.731805418319368
0                         0                        14.462231197117266       -0.4632800329309931      -3.5536032025683326      -1.6936266063923         -1.7267403218264192
0                         0                        14.466610974391939       -0.46327247026046137     -3.718064802438221       -1.523226285158799       -2.094183840147764
0                         0                        13.730779135957599       -0.4645449430532589      -3.1242321703064064      -1.5578928644065115      -1.731887220381516
0                         0                        14.869607290918673       -0.4624825443750577      -3.727902177775346       -1.605477019867152       -1.8260797107048887
0                         0                        15.537880978688975       -0.4612979056598908      -3.964071602315478       -1.765904034109738       -1.7341611524513318
0                         0                        15.663667112307058       -0.4610806843290809      -4.007734165137755       -1.7965574132041553      -1.719658828524416
0                         0                        15.977206028730182       -0.4605471714224948      -4.116568996464304       -1.8729650981334025      -1.6835098286397177
0                         0                        16.221570328733247       -0.460139224034655       -4.201392110853029       -1.9325153149153973      -1.6553362125750488
0                         0                        16.291763135379934       -0.46002331536722973     -4.225757259393121       -1.94962091034112        -1.6472434380374308
0                         0                        16.369209301659577       -0.459896088437974       -4.252640175683366       -1.9684941090483328      -1.638314398261905
0                         0                        17.0848047665417         -0.45875323765246845     -4.50103585366492        -2.1428807320591616      -1.5558108906507613
0                         0                        18.192403504353216       -0.4571007430649787      -5.262823652947418       -1.6846290582444112      -0.33682557353954223
0                         0                        14.931406529454222       -0.4623708332138039      -3.7535537337862337      -1.6181095939061976      -1.8040837159581429
0                         0                        21.264422888886763       -0.45616404747587347     -5.039470074922775       -1.3606098499628274      0.15721285854246503
0                         0                        22.80043258115354        -0.45676044208485483     -3.6265941919407396      -1.5214312124358855      2.3423685779343586
0                         0                        19.728413196619996       -0.45627748113591465     -5.446901648125941       -0.969806021270422       -0.3049120047291467
0                         0                        23.739616589255533       -0.4576051439346537      -2.3667083886204168      -4.153914529373807       0.9854816613566157
0                         0                        23.77424540012863        -0.45763937990252823     -2.3506749615316167      -4.141345976738904       0.9918295434660465
0                         0                        24.67880059735752        -0.4586115393181029      -1.9318583912572755      -3.8130369958385124      1.1576455102461907
0                         0                        24.692577467008498       -0.45862750544591946     -1.9254795861671532      -3.808036670762693       1.1601709779759233
0                         0                        24.74805821910372        -0.45869215473218555     -1.8997915370796008      -3.7878998905687205      1.1703412744647856
0                         0                        24.838594845486487       -0.4587988647768458      -1.8578723269948938      -3.755039554756209       1.1869377389797826
0                         0                        23.93763136373184        -0.45780387768480385     -2.275025903169219       -4.082044919856735       1.021780177320231
0                         0                        24.665222898671292       -0.4585958380533351      -1.9381449785361795      -3.817965031664624       1.1551565529760737
0                         0                        25.61798460545951        -0.45977962823520235     -1.5020679689755667      -3.5005357657909855      1.1346785587354162
0                         0                        26.3507793054697         -0.46088689384577153     -1.0636628373307957      -3.2569273747868195      1.887356427471925
0                         0                        26.362728871474836       -0.46090952026925414     -1.0565138349467063      -3.2529548917057127      1.8996302251303838
0                         0                        26.263264536709464       -0.46072565560671724     -1.1160198258826242      -3.286020560103964       1.797467090618774
0                         0                        26.241243584199466       -0.46068632270923315     -1.1291941823346576      -3.2933411490891302      1.7748486360876754
0                         0                        26.20712036192966        -0.4606263571488316      -1.1496088984224144      -3.3046849856000904      1.739799536780552
0                         0                        26.48050675324965        -0.4611403786998713      -0.35190344481702174     -3.2276452252182737      2.085761615804874
0                         0                        26.14218244014964        -0.46051554385919236     -1.188458958536522       -3.3262727817997586      1.673099632202991
0                         0                        27.104097183632973       -0.4626411317126592      0.020259699055252156     -3.057853351163942       2.7275034365961943
0                         0                        27.123330174384243       -0.4626937800986124      0.031738082871427764     -3.052616571726304       2.747296258779812
0                         0                        27.07262635581226        -0.46255580454253503     0.0014776882170437489    -3.066422262060186       2.6951165599485165
0                         0                        26.719359493698086       -0.461667924204779       -0.2093544535613283      -3.162610143780544       2.3315668512414334
0                         0                        26.7144427287566         -0.4616564728777499      -0.21228881337377814     -3.163948885834703       2.3265069697355045
0                         0                        26.658848970553642       -0.4615287239261469      -0.24546755830691325     -3.17908601419823        2.2692949955365975
0                         0                        27.25970156382838        -0.46307800194638205     0.11312548485339846      -3.0154852229227913      2.8876371291680982
0                         0                        26.62243355167996        -0.4614467689394255      -0.26720053577619396     -3.1890012436722497      2.231819601312722
0                         0                        27.30226029219115        -0.463166188460522       -0.2636131808246205      -2.551044893340247       2.0582281121753283
0                         0                        27.371973357395746       -0.46330808824004727     -0.23131433736821805     -2.4938236567361116      2.0127384737524494
0                         0                        28.177164142065013       -0.4648891623532454      -0.047716900035588594    -1.750953446004985       2.19628710235785
0                         0                        28.58225760595246        -0.465737746977548       -0.03395681929675476     -1.4468617824906573      1.9932874030386074
0                         0                        28.601351199006707       -0.46577571465091316     0.22732806118906979      -1.9054508327743171      1.5146605767896437
0                         0                        29.490189209634735       -0.4672486318812323      0.20250896517221406      -0.8380505014842683      1.7995928928126323
0                         0                        29.534984159250705       -0.46732956617726923     0.201258152153045        -0.7842565103537495      1.8139526845717384
0                         0                        28.64030612835172        -0.4658349613748691      0.22624031953053247      -1.858670087586777       1.527148249578219
0                         0                        28.704298504688904       -0.465933343585613       0.22445345520476678      -1.781822019788514       1.54766210674849
0                         0                        29.17488887205319        -0.4666971541171832      0.21131312212645526      -1.216692819618956       1.6985179451216563
0                         0                        29.434514716370014       -0.4671489372817811      0.20406356857294838      -0.9049096724969985      1.781745476163457
0                         0                        29.776153499368633       -0.46777635846835947     0.194523961066281        -0.4946376704067319      1.891263665663808
0                         0                        29.96859489850544        -0.46814625178788505     0.18915040423620155      -0.26353592775350876     1.9529540669507224
0                         0                        30.340072290917753       -0.46889384848046656     0.17877761081379617      0.18256908461820132      2.07203753604713
0                         0                        32.835251317173984       -0.47254410307768696     0.8503448211668712       2.107517179813854        1.1616384570781548
0                         0                        32.89359091507852        -0.47261302244177683     0.8675838689045321       2.1344269695037923       1.2010574326951584
0                         0                        32.797825652246885       -0.4725011011928042      0.8392857318439297       2.090254174781535        1.13635063497793
0                         0                        33.154621054871          -0.47294955398994876     0.9447169175106325       2.254830030493366        1.3774306180680043
0                         0                        32.71287515245064        -0.4724070056950185      0.8141833010093649       2.0510698100328          1.078951170456321
0                         0                        33.60492824207151        -0.473638327063389       1.0777803491344002       2.4625392389684464       1.6816947657481194
0                         0                        32.70659898342249        -0.47239384893025815     2.2372481125451174       2.633599130711417        2.096835188258609
0                         0                        32.69933502963221        -0.47238675952463555     1.5641042870445077       2.640456986088452        1.2398547342048687
0                         0                        31.104165299863226       -0.4701494241874934      0.7715651121291494       0.9838477900005813       1.5652829202895884
0                         0                        31.592428588537224       -0.4708893764545004      1.0141523282263343       1.4909169996492722       1.4656730584675763
0                         0                        31.845574124628165       -0.4712538683426541      1.1399243702623103       1.7538126747681702       1.4140292170078013
0                         0                        32.40144551493421        -0.47200836812974434     1.416101785624825        2.331093975834662        1.3006267276877281
0                         0                        31.0615179191582         -0.4700824834456432      0.7503763199363451       0.9395578052131413       1.5739833485168297
0                         0                        30.844128274519992       -0.4697354952216868      0.6423691239737792       0.7137951934225555       1.6183326841442351
0                         0                        30.344673643324253       -0.468901766004695       0.3942216360117783       0.19510359614206152      1.7202256749829559
0                         0                        34.394099573957504       -0.47342948605104157     1.8245738468980623       2.759383985745899        -0.9570156124727305
0                         0                        34.39540706175868        -0.4734282326558144      1.8239672498992163       2.7580654436328587       -0.9602416288604729
0                         0                        34.38810056457823        -0.4734351827992287      0.44932614176443053      2.547614665459463        0.37088112084886404
0                         0                        34.34932027379111        -0.4734220102123149      0.46765380387958544      2.520056722239957        0.30846329078802626
0                         0                        34.37155393751821        -0.4734292663041995      0.4571461189680548       2.535856347000802        0.3442489183833928
0                         0                        34.221591990767955       -0.47339574003143386     0.5280185088958547       2.4292908022420505       0.10288148358928595
0                         0                        34.45703940489703        -0.4734306507110989      1.486210388444821        3.2889838865281575       0.02729217805818962
0                         0                        34.4702729810968         -0.4734309779529717      1.4825572195645869       3.2860486144967638       0.02216412430405512
0                         0                        35.49667560613945        -0.47324960947762695     1.199215659291899        3.0583874839929237       -0.3755702261977305
0                         0                        35.881482228289244       -0.47307639757562375     1.0929886231728274       2.9730354900613003       -0.5246840419611374
0                         0                        35.4938886786725         -0.47325065465974386     1.1999849990788345       3.059005638158016        -0.37449028275369045
0                         0                        35.138444645023974       -0.47335928632692953     1.2981064035125023       3.137844866114996        -0.23675456539118045
0                         0                        35.49025403073945        -0.47325201324048827     1.200988354673755        3.0598118208754066       -0.37308184487593365
0                         0                        36.62451981155453        -0.4725795664018964      0.21882054319576838      3.8536704632115786       -0.08000233531831213
0                         0                        34.39826369354958        -0.4734283772626123      1.502435601975133        3.3020206272429107       0.05006795708268896
0                         0                        39.22334309813003        -0.4688735244041932      1.0978625023272812       2.0246597681631586       -1.89152679649942
0                         0                        39.2802522845105         -0.4687652990708896      1.0884298912127228       1.9879300209462865       -1.9119130411455032
0                         0                        39.33970967304638        -0.4686509885207502      1.0785749194653071       1.949555639058206        -1.9332121133305549
0                         0                        40.55046130839662        -0.4660477849091039      0.8778946768023275       1.168124655111396        -2.366932582972865
0                         0                        37.952386048032515       -0.4709882482908505      1.3085217009450503       2.8449479174535526       -1.43623929362181
0                         0                        38.360228454833035       -0.47037269631720063     1.2409224421248553       2.581722426827512        -1.5823382911808324
0                         0                        38.63105335566513        -0.46993102252960006     1.196033626589582        2.4069293788104655       -1.6793543097846566
0                         0                        38.99891508397353        -0.4692890145018863      1.135061104440645        2.169507810327319        -1.8111312629656453
0                         0                        40.608118520988484       -0.4659107187420127      0.8858436861582608       1.1321260211702295       -2.3623126943540456
0                         0                        40.62698863345052        -0.4658663366628559      0.8824054109727841       1.1345741896887134       -2.3416422233590524
0                         0                        41.21610542326846        -0.46467692128179017     0.7750639394330423       1.211004957204075        -1.6963190149657095
0                         0                        42.647012755934          -0.4618850916428696      -0.30400968045259447     0.7786209477982093       -1.9358083574658167
0                         0                        42.68876761867267        -0.461798373669135       -0.011642506655448415    0.6592569132312067       -2.2178622833596506
0                         0                        42.70431133815202        -0.4617630838120866      0.09719447750416066      0.6148223025645603       -2.322860044448575
0                         0                        41.39983429891308        -0.4643586665152609      0.6605014416643655       1.0258096379927792       -1.6874352399510997
0                         0                        41.47513795390271        -0.46423297803576347     0.6118050389824248       0.9766507448814536       -1.6507421570072438
0                         0                        41.5334532140812         -0.46413754309660743     0.5740944737708134       0.9385820264073175       -1.6223269800954654
0                         0                        41.929339013053635       -0.4632777560308702      0.3611734895636536       0.934648528717652        -2.083693165945625
0                         0                        42.14025255433476        -0.46284817788117305     0.22844198863035914      0.9355624800993283       -1.9898067818328684
0                         0                        41.63127352047383        -0.46391860692527687     0.5487512048978853       0.9333569218959212       -2.216374506162726
0                         0                        41.677877481946624       -0.46381579850117094     0.519422534400233        0.9335588707831874       -2.195629145758417
0                         0                        42.30399721885881        -0.46252832527519705     0.12539466905051766      0.9362720346468478       -1.9169172253987128
0                         0                        42.56522667369671        -0.4620427584479827      -0.039001497350305225    0.9374040199129752       -1.8006331367168968
0                         0                        42.60603674071793        -0.4619696451720789      -0.18900812906925069     0.727537395376725        -2.043616351742614
0                         0                        45.50448902851416        -0.45554309630230616     -2.482579049771715       -2.1099557778508853      -0.9541140247370663
0                         0                        45.64281785496057        -0.4554155523350094      -2.6460726648935804      -2.124274266619395       -0.8899552205967893
0                         0                        45.92771173593981        -0.4551808321470773      -3.2984935423316983      -2.284510023286643       -1.46723072650002
0                         0                        45.31515403195179        -0.4561588661789592      -4.095631993168125       1.833845501065582        -3.3338782922600103
0                         0                        45.34597614286675        -0.45605651845246775     -4.065824130364669       1.7631162893367787       -3.307310351426281
0                         0                        45.27980228934281        -0.4562772632120639      -4.129820433293613       1.9149691105050692       -3.3643506699818317
0                         0                        45.403301937069045       -0.45586834059390047     -4.010384728001469       1.631567601875446        -3.257896853668285
0                         0                        42.823994885631606       -0.4614727675877856      0.29701792274553895      0.609302840545006        -2.397653616705739
0                         0                        43.26261196984818        -0.4604661967149343      0.2042325063528807       0.6072648995425733       -2.1920940656002728
0                         0                        43.798440610024045       -0.45935888807127034     0.09088287798052708      0.6047752857189891       -1.9409759520851781
0                         0                        44.12089389852305        -0.4587573783938202      0.022670845852594823     0.6032770750891221       -1.7898570020453946
0                         0                        44.573030983773556       -0.4579960206294249      -1.459478672652672       0.6092950785267419       -2.017733074061809
0                         0                        45.14071290282219        -0.4566617701759492      -3.083828707697835       1.1559602278732797       -2.682964301368685
0                         0                        45.04848245741363        -0.4569042370749673      -2.819922949552998       1.0671443460885328       -2.574885163500447
0                         0                        45.03934550114341        -0.456927714773264       -2.793778704440136       1.0583456590130957       -2.564178131217858
0                         0                        46.139907914061446       -0.45492278397970354     -3.3793248852880424      -1.822999869068937       -0.9649352970180942
0                         0                        46.51029085793075        -0.4544115718964712      -3.170934231898542       -0.9770721225431771      -1.0962331427705578