% Model:              AluminaWithRodsOriginalRydberg.mph
% Version:            COMSOL 5.5.0.292
% Date:               Mar 10 2026, 10:24
% Dimension:          3
% Nodes:              582
% Expressions:        4
% Description:        Electric potential, Electric field, x component, Electric field, y component, Electric field, z component
% Length unit:        mm
% x                       y                        z                        V (V) @ Length=0.166     es.Ex (V/m) @ Length=0.166 es.Ey (V/m) @ Length=0.166 es.Ez (V/m) @ Length=0.166
0                         0                        214.92241065032505       0.9999869561862706       6.607725325125102E-6     -1.5536934434834393E-4   -1.5811666433052096E-4
0                         0                        215                      0.9999869682972451       6.5479701447657135E-6    -1.546040474877941E-4    -1.5406468811107743E-4
0                         0                        214.8716072707872        0.9999869480860161       6.6468512471828944E-6    -1.5587043970555214E-4   -1.607697873566849E-4
0                         0                        213.80481190908284       0.9999867355353209       -1.0072002369909683E-6   -1.7411217447360627E-4   -2.89049117256468E-4
0                         0                        213.91787324762066       0.9999867671394913       -8.099420750751207E-7    -1.7467010918137404E-4   -2.7001325260389564E-4
0                         0                        213.57420212147764       0.9999866644007982       -1.4095455131979406E-6   -1.7297416214745454E-4   -3.2787633018926954E-4
0                         0                        214.55524248400127       0.9999869050388462       3.0207664636350273E-7    -1.7781539689565307E-4   -1.6270093317416467E-4
0                         0                        214.81655610478506       0.9999869418063423       7.579908469779184E-7     -1.7910492630335284E-4   -1.1870418970261198E-4
0                         0                        212.8019380424373        0.9999863609871615       -4.8447923148842165E-6   -1.8754047578539712E-4   -4.534774671753894E-4
0                         0                        211.72825363074696       0.999985789268678        -5.5358692918616725E-6   -2.324268700704124E-4    -6.061687257670201E-4
0                         0                        211.87134881223244       0.9999858749591857       -1.1523741846986013E-5   -2.2398338869322743E-4   -5.910821722352466E-4
0                         0                        211.1188563890231        0.9999854008403242       2.2517841273383965E-5    -2.7003318894003314E-4   -6.686265215876119E-4
0                         0                        212.58290021629267       0.9999862581112603       -6.416852798452055E-6    -1.9611824147602874E-4   -4.858662316706841E-4
0                         0                        212.72350751947815       0.9999863249658917       -5.407697472037398E-6    -1.9061190236868697E-4   -4.6507486003122267E-4
0                         0                        212.73777147281203       0.9999863315846556       -5.305323483639768E-6    -1.9005330983645763E-4   -4.6296567262515964E-4
0                         0                        212.02865763317305       0.9999859661120456       -1.0394717776307516E-5   -2.1782299964456797E-4   -5.678211746413808E-4
0                         0                        210.58156660521462       0.999984892910305        3.357083043908915E-5     -1.9242088009008285E-4   -9.71530054844294E-4
0                         0                        210.59226344141928       0.9999849036558253       6.751685936023932E-5     -1.7701954632798333E-4   -0.0010033487874920866
0                         0                        210.5750437965358        0.9999848865683917       5.7398692277388363E-5    -9.999395704340941E-5    -7.820267680358484E-4
0                         0                        208.39772715484958       0.9999819836615939       6.755375525813179E-5     -3.165911674898325E-4    -0.0018844726675908419
0                         0                        208.3994429523402        0.9999819868942221       6.754575284162456E-5     -3.1642048175228865E-4   -0.0018836039037211094
0                         0                        209.48638547569277       0.9999837351617182       6.247622374644379E-5     -2.0829256216359227E-4   -0.0013332497177316327
0                         0                        209.48981707067395       0.99998373973391         6.246021862921225E-5     -2.0795119064587197E-4   -0.001331512190176909
0                         0                        208.61011522592165       0.999982372481113        6.656317171405135E-5     -2.9546302135941005E-4   -0.0017769337118593853
0                         0                        208.61198643261113       0.9999823758052365       6.655444425973656E-5     -2.9527687577513007E-4   -0.0017759862593393905
0                         0                        209.9090878997819        0.9999842534945453       6.050472850915867E-5     -1.6624256161179574E-4   -0.0011192217967952445
0                         0                        209.9149040312158        0.9999842599955224       6.047760190597273E-5     -1.6566397883366335E-4   -0.0011162769012216245
0                         0                        207.3090688340065        0.9999796320680175       -1.765284870387518E-4    -2.905805021100605E-4    -0.002384969821001448
0                         0                        205.94522694847134       0.9999754385394637       2.3161450795328165E-4    -2.5713414524375366E-4   -0.00393166331828354
0                         0                        204.5813850629362        0.9999689077337921       -1.377790895844555E-4    -2.1843086778972065E-4   -0.005645408248312833
0                         0                        203.21754317740098       0.9999600396510033       -1.6086586867913866E-4   7.082369409658895E-4     -0.008614641778031285
0                         0                        200.19880002666582       0.9999242123049492       3.0567160315042585E-4    5.696425061185728E-4     -0.016429732083013793
0                         0                        200.52132155413614       0.9999293540689426       1.8861096845057546E-4    4.83910025408818E-4      -0.015455048037296137
0                         0                        201.7081716020334        0.9999455684267615       -2.421615783703146E-4    1.684222507378763E-4     -0.011868298912929731
0                         0                        201.86943236576857       0.999947443023135        -3.006918959727045E-4    1.2555601091435165E-4    -0.011380956890036487
0                         0                        200.1533494957696        0.9999234624434773       3.221680768579205E-4     5.817241390753125E-4     -0.016567086968175992
0                         0                        201.68544633658527       0.9999452979361618       -2.339133416171535E-4    1.7446306765123154E-4    -0.011936976355457318
0                         0                        199.2921457434335        0.9999080741121869       6.347458407276463E-4     8.106488089367758E-4     -0.01916970876524715
0                         0                        199.17321074250376       0.9999057727884281       6.779138327601686E-4     8.422640402159232E-4     -0.01952913918475474
0                         0                        200.7067341142089        0.9999321676828048       1.2131464836073746E-4    4.3462376882530407E-4    -0.014894717489568166
0                         0                        199.12999271878834       0.9999048496547875       -3.484022122108854E-4    2.841147953915879E-4     -0.022277410510639584
0                         0                        199.13054242841784       0.999904861900189        -3.489608722304638E-4    2.837121693062272E-4     -0.022274846687480476
0                         0                        198.8760357486965        0.9998990417521039       -0.0018805011190465848   -0.0011577291514868193   -0.01883494370803973
0                         0                        199.13164070151268       0.9999048854356625       6.499289114003659E-6     -2.8608568734966866E-4   -0.02142737604609124
0                         0                        197.585194428383         0.9998673417602453       -2.567112140638983E-4    -1.8413684583151735E-4   -0.030280298203971157
0                         0                        197.64222578717397       0.999869054267176        -3.2845275458726064E-4   -2.271516542862173E-4    -0.029774624804426608
0                         0                        197.38166854885742       0.9998609952966019       -6.896077024975966E-7    -3.063135508796222E-5    -0.0320848777473568
0                         0                        195.42445655869543       0.9997812158693831       0.0024613489256068988    0.0014455582465160433    -0.04943866453617218
0                         0                        195.97407407088528       0.9998070490187861       0.0017699677668758795    0.0010310197803278243    -0.0445654340584678
0                         0                        197.09238710967884       0.9998513427424389       3.6320661499189555E-4    1.8755362161471112E-4    -0.03464981626327912
0                         0                        195.30873847066118       0.9997754355568635       0.0026069143489735325    0.0015328363946167656    -0.05046468881858601
0                         0                        196.06890083241154       0.9998112351498979       0.0016506822003918842    9.594985142058476E-4     -0.04372464450192837
0                         0                        194.3059223545966        0.9997203704565534       0.0038683882882537546    0.002289191214728703     -0.05935624331247524
0                         0                        194.7431249060947        0.9997454737511176       0.0033184174450582304    0.001959439576282307     -0.05547974965696412
0                         0                        194.28598193158308       0.9997190758018176       2.3886489259439259E-4    -0.002642505622169722    -0.06586012921817996
0                         0                        193.62896952641296       0.9996732552961172       0.002135976119859606     -0.0015965772207806594   -0.07362127277801278
0                         0                        193.42061178245396       0.9996568340337869       -0.006853628646467769    -0.0035149099457782995   -0.07107856862722883
0                         0                        193.5090278014468        0.999663898771189        -5.384105308792186E-4    6.133017775482585E-4     -0.07909946416279467
0                         0                        192.2789430648898        0.9995576474776785       -0.004576865691561238    3.0814589934635706E-4    -0.10267858978917843
0                         0                        192.65922975703631       0.9995946933529672       -0.005335249134336806    -9.653034288650275E-4    -0.09215271014056725
0                         0                        191.13727434732567       0.9994223841659354       -0.0023001027366831295   0.004131201744854707     -0.13427861095078697
0                         0                        191.3274176933989        0.9994474159938337       -0.0026792944580620315   0.003494477080693059     -0.12901567112669454
0                         0                        192.74291325357046       0.9996023080976479       -0.005502134222965083    -0.0012455306749288297   -0.08983645129910656
0                         0                        192.85229676742858       0.9996119691393536       -0.0057202713484372225   -0.0016118184388957957   -0.08680884679375822
0                         0                        191.38507415825197       0.9994548085754662       -0.0027942753642378193   0.0033014054114346436    -0.127419809313551
0                         0                        191.42395119859503       0.999459741363328        -0.002871805565575869    0.0031712195755062567    -0.12634373945320476
0                         0                        189.99560562976146       0.9992510440985577       -0.009298574762524936    0.005333528502319496     -0.16508149381877502
0                         0                        188.682906667054         0.9989879857744601       0.0027631142693564925    0.0016171666516129335    -0.23158545532627528
0                         0                        189.05931228797533       0.9990717894191601       0.0038203298740313585    0.002033371277207152     -0.2136982494964741
0                         0                        188.5133844386337        0.9989480440665311       0.002286974873015879     0.0014297201001056692    -0.23964133659882236
0                         0                        188.29501089781368       0.9988945796701145       0.0016736261283369913    0.0011882569741317184    -0.2500186855418818
0                         0                        188.3648854445025        0.9989119336027008       0.0018698837213264596    0.001265519660762493     -0.24669817083793077
0                         0                        188.1833181677745        0.9988663579814406       0.0013599132331876262    0.0010647544856112745    -0.25532644594943577
0                         0                        189.18024553713195       0.9990972851483779       0.004159996741464056     0.002167091325389947     -0.20795136953749704
0                         0                        188.1230189461892        0.9988508756022478       0.0011905499865463298    9.98079564794807E-4      -0.25819193075587066
0                         0                        188.05856901623724       0.9988341364539974       0.0010095285888098715    9.268150632522065E-4     -0.2612546617531706
0                         0                        187.88597700244927       0.9987883382066055       5.24767043955876E-4      7.359741446322232E-4     -0.26945642257607716
0                         0                        187.54952535187306       0.9986949894615261       -2.623096326885843E-4    3.2079412952157327E-4    -0.2858900249888059
0                         0                        186.28508332402515       0.998264027998453        -0.0023993716070407345   0.0022918839739674013    -0.39577264294192993
0                         0                        186.60024307404595       0.9983844438030475       -0.001866713009192722    0.0018005936111791243    -0.3683846111909759
0                         0                        186.71290969707266       0.9984253968958686       -0.0016762926098152775   0.0016249619637704882    -0.3585936494692916
0                         0                        186.8768731366294        0.9984830250061246       -0.0013991743045522753   0.0013693656901239137    -0.3443448886797835
0                         0                        186.92188024383137       0.998498434957312        -0.0013231067782726313   0.001299205848781071     -0.34043367831435134
0                         0                        186.19145049016248       0.998226589744471        -0.0025576225703218824   0.002437844582800608     -0.4039095291610266
0                         0                        185.9738133446973        0.9981366259291813       -0.0029254560157312426   0.002777110723755527     -0.4228226456034925
0                         0                        187.06922618778898       0.9985476531211855       -0.0010740740768540036   0.0010695139472431947    -0.32762901213711615
0                         0                        186.61872234176562       0.9983912364430986       -0.0018354807821765462   0.0017717869944107179    -0.36677872474449025
0                         0                        187.14124972858076       0.9985710247252465       -9.523454669846387E-4    9.572392311838485E-4     -0.3213700180177419
0                         0                        187.18708344169733       0.9985856630276062       -8.748808753011872E-4    8.857908258192992E-4     -0.31738697389498505
0                         0                        185.36893039319247       0.9978517774726862       -0.00219512915518294     0.007452313254208587     -0.49863411939730895
0                         0                        185.39877894590882       0.9978666201518139       -0.0022970739678100927   0.007920126554518347     -0.4958984644212592
0                         0                        185.90373602701854       0.9981053429086462       -0.0040217054935567376   0.015834267012824643     -0.4496185538083495
0                         0                        185.34978756708887       0.997841775842278        -0.020340227128514243    0.006862482284930138     -0.523376411888762
0                         0                        185.32285139294663       0.9978276438835381       -0.019686040289599305    0.006444134487594511     -0.5259157900747482
0                         0                        184.97453158320917       0.9976387380254919       -0.0697981635458973      0.009120415817111649     -0.4732572898154501
0                         0                        184.2840608271614        0.9972660780073219       -0.05344825456215574     -0.0010050111148789398   -0.6061802240985941
0                         0                        184.52320598775924       0.9974055381947196       -0.059111060083523626    0.0025019395106493647    -0.5601422475618563
0                         0                        184.6776257476665        0.9974897399740702       -0.06276762192594276     0.004766432223913597     -0.5304148081036146
0                         0                        182.57462728294448       0.9959485795292425       -0.01296995390029565     -0.026073045199662914    -0.9352642883675912
0                         0                        182.62163638333126       0.9959923327517654       -0.014083099542006039    -0.025383678985534175    -0.9262145386038014
0                         0                        182.77140974319704       0.996128895810654        -0.017629637581961788    -0.02318732353027997     -0.8973815803699381
0                         0                        183.8518060805405        0.9969860689876084       -0.04321273668801595     -0.007343822446894688    -0.6893938414391627
0                         0                        182.35849990963405       0.9957419471301123       -0.007852194963220427    -0.029242450865737624    -0.9768710970377583
0                         0                        183.60475230171528       0.9968098766371484       -0.037362660110098034    -0.010966749216618332    -0.7369543107559196
0                         0                        183.68288306933908       0.9968668678606992       -0.03921274706639366     -0.00982099847810769     -0.7219133103958271
0                         0                        182.2349730202214        0.9956198085329294       -0.004927156674511934    -0.03105391425059878     -1.0006513316960763
0                         0                        182.24422872055294       0.9956290620157946       -0.005146325779833205    -0.030918183784578446    -0.9988695113420363
0                         0                        180.86519373872753       0.9940685337128344       -0.03983424317173956     0.05748442000930254      -1.630142741203315
0                         0                        177.09674240446918       0.9858851776330727       -0.07274663895179856     0.0024521542888464865    -3.3895666142475918
0                         0                        177.54350650426352       0.9873453993153166       0.06505517865818433      0.1855797282651679       -2.757907083930842
0                         0                        179.65722824289801       0.9921877252135836       0.1510768599965786       0.06312076254124577      -1.82389364201995
0                         0                        179.75796466057287       0.9923692156596654       0.1551765084333283       0.05728457450678093      -1.7793801346466118
0                         0                        178.4492627470685        0.9896621325375888       0.10191654667320904      0.13310452745483303      -2.3576706240356238
0                         0                        178.65073558241818       0.9901281708604925       0.11011584354565684      0.12143215138613073      -2.2686436092887092
0                         0                        179.53389727389953       0.9919594220218415       0.14605768593986568      0.07026597121713962      -1.8783912519670238
0                         0                        178.20260080907144       0.9890671424462201       0.0918781985592716       0.14739494480664916      -2.466665843929661
0                         0                        179.43465314893183       0.9917708265952193       0.1420187690203818       0.07601570292277415      -1.9222453435705553
0                         0                        178.1696682896042        0.9889856693040996       0.09053795086057903      0.14930289806213182      -2.481218098039733
0                         0                        177.0932107002029        0.9858733463649325       -0.06118137277556457     -0.0160181022671253      -3.154956295923
0                         0                        176.52200435899155       0.9839287030116913       -0.02260418261906949     0.07357682232692397      -3.653943441139802
0                         0                        176.53006109902492       0.983958113532005        -0.023148305416597736    0.07231310558647053      -3.646905337010125
0                         0                        176.5126675782988        0.9838945488662988       0.2622122959272275       -0.40378512660558386     -3.005428172415435
0                         0                        176.43592142394394       0.9836597223120334       0.24820569606498566      -0.38058781133173625     -3.114137198358634
0                         0                        175.54720319964662       0.980332751543188        0.08600967904373746      -0.11196357847265404     -4.372984541439948
0                         0                        173.97611303042177       0.9717142384018614       -0.2007230117716432      0.36291459992202135      -6.598394835949875
0                         0                        174.14338494881557       0.972798148150639        -0.17019495666811224     0.3123549404834023       -6.361458308392315
0                         0                        173.64099252367004       0.9694234418218043       -0.26188436745383115     0.46420822323312905      -7.073084729779964
0                         0                        174.92003900143038       0.977311597607434        -0.028451274032327944    0.07760325724260042      -5.261347087650165
0                         0                        173.3274104245619        0.967135805417068        -0.31911484399182655     0.5589916410904152       -7.517266002885037
0                         0                        171.73478184769345       0.9533671722952007       0.15134065419874787      0.5839940040539204       -10.568699048262118
0                         0                        167.7822372221244        0.8876793827100582       0.5194417555012834       -0.6187407528260493      -23.389921715544773
0                         0                        168.1076883976875        0.8951102192458076       0.5471353113894679       -0.4891097106163791      -22.274909716649447
0                         0                        168.14458872531785       0.8959298381989006       0.550275264052928        -0.4744118748492845      -22.148487349301078
0                         0                        169.75850953490894       0.9272137574486579       0.6876083250329543       0.1684318212263065       -16.619113965268866
0                         0                        169.9396852865057        0.9301685084610973       0.7030250793085457       0.2405962602147298       -15.998396782146926
0                         0                        168.96748209117658       0.9129957006437315       0.6202975750127564       -0.14664374047674045     -19.329213536090435
0                         0                        170.35113196943504       0.9364610005346206       0.7380362347885665       0.40448032740093254      -14.588759875541541
0                         0                        167.58383221291822       0.8829712726225369       0.2394462114905167       -0.48372985863097995     -24.982107079093794
0                         0                        169.4603029814307        0.9221054943227465       0.6622330906657652       0.0496526333672449       -17.640784526765827
0                         0                        167.02004280812392       0.8679357847400617       -0.0887611376780022      -0.41489976136726625     -28.355141739766268
0                         0                        167.25548889265315       0.8744460642282585       0.04830269257164588      -0.4436441413800196      -26.946516822229086
0                         0                        167.27563364707447       0.874987681250388        0.06002986656993414      -0.4461035089990659      -26.825994949494174
0                         0                        166.22742152567315       0.8441973725877574       -0.2671932645747219      0.13741489198681478      -33.24685509765298
0                         0                        166.39798868684056       0.8497471556798127       -0.16386785212199761     0.18166288483032744      -31.82760652873742
0                         0                        164.41589574116634       0.7703170260183255       -1.3645712567486825      -0.33252539077469123     -48.3201280513569
0                         0                        164.90810746599306       0.7930928143059967       -1.0664014382818543      -0.2048373837246018      -44.224551966942414
0                         0                        166.16654615121837       0.842158040249676        -0.3040700767975686      0.12162279510961405      -33.75338453442043
0                         0                        164.38545805393892       0.7688424186777674       -1.3830096628602249      -0.34042143921342927     -48.57339276974088
0                         0                        165.5481518576358        0.8196941625224535       -0.6786782077264331      -0.03879909436601281     -38.898895605752266
0                         0                        164.07626090714768       0.7534259198878838       -1.5703137283248765      -0.42063238395105884     -51.146148305406314
0                         0                        162.60436995665953       0.669131056836349        -1.9122408398885682      7.334531837301881        -67.51297645921119
0                         0                        161.3018110060161        0.577316823441369        -0.34114874235395387     -0.06228753636099782     -76.07582970929016
0                         0                        159.9992520553726        0.4709445510054212       0.17687868016785924      1.3236894532747954       -87.25232120994133
0                         0                        158.69669310472915       0.35001423952851196      -0.8306087249867744      3.8215973290702934       -96.72299762119553
0                         0                        157.39413415408575       0.22111716195609374      -5.33758781578242        0.807572245283076        -96.64938609841091
0                         0                        156.0915752034422        0.09823119365514972      -2.404576429096686       0.2850384326450879       -92.03453986169119
0                         0                        154.78901625279877       -0.018643665374304164    0.8179157337691527       -0.3265619624464977      -88.07659402982314
0                         0                        152.46846422054887       -0.18576658822620642     -0.624115615310628       -0.6305696788260966      -60.11070557060223
0                         0                        152.50225092684357       -0.18372978765759262     -0.5999342904195468      -0.6208051549214444      -60.457458182684526
0                         0                        151.65984521510453       -0.231017943925351       -1.2028485262139625      -0.8642645391524368      -51.8118572048797
0                         0                        151.72097093949316       -0.22783173353990555     -1.1591005210739098      -0.8465989048707989      -52.43918987271314
0                         0                        152.14656281630351       -0.20458458063548        -0.8545021576110798      -0.7236007641672195      -56.80703483746477
0                         0                        153.3724214992704        -0.12723593512892079     0.02285140342677039      -0.36932158971436735     -69.3880096343118
0                         0                        153.46778953455114       -0.12057186571434475     0.09110681208470339      -0.3417597595638604      -70.36677077942859
0                         0                        151.04584559603728       -0.26089585391720016     -1.6422913100761605      -1.041713441852231       -45.51038555884704
0                         0                        150.82533609805589       -0.2706818101377111      -1.8001111273069625      -1.1054417687706461      -43.24729889550068
0                         0                        150.7885143932461        -0.27236287828960903     -0.08487275895298296     -1.7144093409673715      -45.49308611098829
0                         0                        149.5838609720744        -0.3202218317314778      -0.6524898491341884      -1.6683203516651077      -33.99237292046916
0                         0                        150.101754560339         -0.30134028425620546     -0.3894463252939211      -1.6812693747952325      -38.92433392095825
0                         0                        149.13635237007836       -0.3344801425529679      -0.8797841085829461      -1.657131181979529       -29.730696347442592
0                         0                        150.63645779296627       -0.27916595163487934     -0.11786500877221329     -1.6946386936745181      -44.01637512384293