% Model:              AluminaWithRodsOriginalRydberg.mph
% Version:            COMSOL 5.5.0.292
% Date:               Mar 10 2026, 10:25
% Dimension:          3
% Nodes:              568
% Expressions:        4
% Description:        Electric potential, Electric field, x component, Electric field, y component, Electric field, z component
% Length unit:        mm
% x                       y                        z                        V (V) @ Length=0.17      es.Ex (V/m) @ Length=0.17 es.Ey (V/m) @ Length=0.17 es.Ez (V/m) @ Length=0.17
0                         0                        0.40916645112843253      -0.4423642181893592      -0.2709040449150546      0.40420465485470913      10.301126967685036
0                         0                        0.426116785933653        -0.4425385266491455      -0.2692461471628125      0.403295554918742        10.26583666923198
0                         0                        0.15560794844856865      -0.43968535254306135     -0.29570438523108855     0.4178037973600084       10.829031303363774
0                         0                        0.12247741834033873      -0.4393254383701526      -0.29894485404929405     0.4195806922204568       10.898008483393646
0                         0                        1.1173656517644692       -0.44913736299315343     -0.159808981165952       0.39357461015717377      8.914088882947851
0                         0                        0                        -0.43797506281074655     -0.31092426560015163     0.426149542596427        11.153004310712667
0                         0                        2.0939034823205267       -0.4571783560970732      -0.6743288437004935      0.7750477899854076       7.454016341695809
0                         0                        2.495818402884621        -0.46004518361642105     -0.6985860354558966      0.7162426201384093       6.8118263661300915
0                         0                        2.0655083855596734       -0.4569660544331405      -0.672615084713641       0.7792023470879741       7.499386756084547
0                         0                        1.8141278724187118       -0.455030369712682       -0.6574432535652193      0.8159824540587124       7.901048991875989
0                         0                        2.5108900930729536       -0.4601476678753082      -0.6994956729445789      0.7140374437291825       6.7877444327193395
0                         0                        2.5262950075543937       -0.4602520429067012      -0.7004254218675285      0.7117835124460754       6.763130064980672
0                         0                        3.0136511193548743       -0.4633583411145566      -0.7298393352414445      0.6404772297876784       5.984419961136554
0                         0                        3.207652313727194        -0.4644892574810322      -0.5665073709145201      0.607306503032544        5.960788905309448
0                         0                        4.491133619202478        -0.47137150727170585     -0.4966221138170539      0.12502738380877432      4.703004914694034
0                         0                        4.892024114498686        -0.4731999521116213      -0.5647011833633258      0.010076613502826959     4.418911725232022
0                         0                        4.9834835254847425       -0.4736011392866711      -0.5802327853199927      -0.01614832789115006     4.354098525422586
0                         0                        5.201614010185965        -0.4745340416761107      -0.6172756202399228      -0.07869475275751725     4.199519193049497
0                         0                        4.473703743239572        -0.4712894268344399      -0.5579017735768446      0.09375827882325183      4.781538293873851
0                         0                        5.339103041336288        -0.4751047315625312      -0.6406239545688663      -0.11811816195462299     4.102086857202664
0                         0                        3.9320136131033188       -0.4685626593923137      -0.5615837465465034      0.313483953403761        5.286090006609385
0                         0                        4.151699416823973        -0.4697014618204053      -0.5600904994922615      0.22437283851936485      5.081465919212661
0                         0                        3.570479101554778        -0.46659068248231395     -0.5640411668040421      0.46013313531544675      5.622837617220206
0                         0                        3.4264332287857915       -0.465771072609331       -0.5650202745641373      0.518562437981009        5.75700766717064
0                         0                        5.420869273997635        -0.475413051160097       -0.4495132943532596      -0.32683291726661423     3.7554539998632777
0                         0                        5.801744419181745        -0.4768162819951942      -0.32493414539101195     -0.5796363035107106      3.695094887128377
0                         0                        6.509066611257515        -0.4791977351312999      -0.5489043260292874      -0.5683222580394585      3.038620420508309
0                         0                        6.56247330017939         -0.4793586941712821      -0.2684475071957877      -0.2579755543055029      3.3787036511960906
0                         0                        6.424428526793989        -0.47893722780417836     -0.5221040824082479      -0.569676095296245       3.117174072544671
0                         0                        6.328863029294572        -0.47863509539743876     -0.49184372584434755     -0.5712047231214683      3.2058695916463193
0                         0                        7.3806083803934195       -0.48184499189713786     -0.20742177161041297     -0.26240403598258055     2.699260210726308
0                         0                        7.4201980210108          -0.48195120381802237     -0.20446872999342247     -0.262618330666033       2.6663818728104687
0                         0                        7.435321734987862        -0.4819914344385285      -0.2033406329437213      -0.26270019378606335     2.6538219563544985
0                         0                        7.199046129495847        -0.4813412198406324      -0.22096473069327516     -0.2614212580516764      2.8500437223891986
0                         0                        6.647489295351186        -0.47964293679246073     -0.26210605604999415     -0.25843573720926827     3.3080997110260597
0                         0                        7.000118787753387        -0.4807578363389574      -0.23580297397539418     -0.2603444846565681      3.0152485653861234
0                         0                        7.870546043168639        -0.483067787580184       -0.040087444844743914    -0.10670986908965574     2.8858027675730398
0                         0                        10.097571119683735       -0.4887112422273522      -0.7361374924812978      -0.07652893378541492     2.182352689391319
0                         0                        10.144919705170508       -0.4888142194677279      -0.7509361517021915      -0.07588725955802289     2.167396698767977
0                         0                        8.913035703196032        -0.48590456586723        -0.3659144798319005      -0.0925819127785843      2.5565117144172937
0                         0                        9.005646566699868        -0.48613997205280884     -0.3948597290943461      -0.0913268382357586      2.5272587347992115
0                         0                        9.007732874169575        -0.4861452440041449      -0.39551179827349614     -0.0912985643238855      2.5265997331705066
0                         0                        9.174308167898491        -0.48656173082458243     -0.44757440967271833     -0.08904111414232929     2.473983620028136
0                         0                        9.69433067937633         -0.4878055486985821      -0.6101058951523202      -0.08199370100760017     2.309724187023553
0                         0                        8.812570110154802        -0.4856461303115542      -0.33451425827187364     -0.09394343564414243     2.5882457662807994
0                         0                        8.817439426462979        -0.48565872955419853     -0.33603614856570374     -0.09387744603228754     2.586707696066057
0                         0                        11.282106536171442       -0.49107471397093283     -1.9416988566135274      1.197607885216371        2.2886748313633802
0                         0                        12.81830310921305        -0.4931279697291088      -1.4217763670858936      -0.257134860319411       0.8918047935369349
0                         0                        14.35449968225466        -0.4938146889062398      -1.4620962331387055      -0.2998321294666937      0.0022463834829981317
0                         0                        15.890696255296266       -0.49313487150232554     -0.3115954472535236      -1.2554636925203937      0.022522831111245978
0                         0                        18.9631254661106         -0.49085550588387156     -0.4886609409237792      -4.902785156170523       -0.37943543488253795
0                         0                        20.499340071517768       -0.4905510059031717      -3.2535350596591783      -1.1663500722322624      0.7767724272531639
0                         0                        17.426910860703433       -0.491716794416923       0.47888530284494557      -4.79269728573693        -0.7418773426678129
0                         0                        22.03555467692493        -0.49211348936289434     -2.755936283600649       -0.12475723597631827     1.257427031888902
0                         0                        23.571769282332095       -0.49441436144641454     -2.258337507541823       0.9168356002798248       1.7380816365246687
0                         0                        25.107983887739273       -0.4974536221537325      -3.6122687731837573      4.813123978328122        -2.2916870334844646
0                         0                        28.18041309855359        -0.5038999747747746      -3.2963596321938127      0.6444485497950794       1.7134808760011833
0                         0                        29.716627703960754       -0.5062367981412119      -2.864707651910919       0.8309605146516787       1.7776046114360824
0                         0                        26.64419849314643        -0.5009722494456147      -3.520065098996227       0.7026816059495999       2.0981289327519885
0                         0                        31.252842309367924       -0.5071804710008414      -3.5367671791061603      2.1616218482545855       0.1227058649565933
0                         0                        32.78905691477508        -0.506613803225043       -3.1004117529289204      2.147329418887789        -0.8604514557144682
0                         0                        34.32527152018224        -0.5045367948138165      -2.9371046158012177      1.7660031821422422       -2.227475644138501
0                         0                        37.397700730996576       -0.4949922223105077      -3.2293120355640355      3.45949187080474         -4.064046490462807
0                         0                        38.93391533640374        -0.4880134940727807      -4.806867433427215       4.8918554887944765       -4.585274150089504
0                         0                        35.86148612558941        -0.5004999892241866      -3.474458028762797       3.972624220876412        -3.106523160798581
0                         0                        39.850734912170374       -0.4839356647569         -2.900995059963641       3.3958400589659377       -4.740029990311825
0                         0                        39.88709511644397        -0.4837628948979085      -2.8986646971083445      3.3702596198325914       -4.763209193464924
0                         0                        40.289099036437996       -0.4817965547998666      -2.8728998527799163      3.087438414280353        -5.019481970696191
0                         0                        40.489176332472425       -0.4807795107976203      -2.8600766932792467      2.9466783389335554       -5.147028896896403
0                         0                        40.75856486122069        -0.4793698289371591      -2.8428113056502085      2.7571558376015304       -5.318760919851641
0                         0                        39.71154583443809        -0.4845892499386558      -2.909915830985213       3.4937635388279773       -4.651298588112564
0                         0                        40.76755448793697        -0.4793219895031035      -2.842235151236274       2.7508313792097425       -5.32449170129509
0                         0                        40.77663313285381        -0.47927362406212226     -2.841653291554451       2.7444442939788267       -5.330279230795753
0                         0                        41.26680683050676        -0.4765842766496745      -2.810237555573252       2.3995931390392045       -5.642759205680269
0                         0                        42.22056776980879        -0.47154298291589686     -2.9996756386268197      2.515491446152576        -5.353258147422403
0                         0                        42.23012547996824        -0.4714918115554484      -3.0002340384244954      2.5163050845487813       -5.354612167714108
0                         0                        41.762600503176294       -0.4739797436331316      -2.9729193523641264      2.476505146495679        -5.288378907350332
0                         0                        42.0253909378796         -0.4725851165342892      -2.988272624552618       2.4988762358305525       -5.325607864404677
0                         0                        42.23139282054237        -0.4714850253244195      -3.000308081548665       2.5164129719961177       -5.354791709134201
0                         0                        42.78397504525243        -0.46850443367360006     -3.0325921535015077      2.563453749290204        -5.4330748473160355
0                         0                        41.74497477509179        -0.4740729331560469      -2.971889586569578       2.4750046857273524       -5.285881908269367
0                         0                        43.542559152625245       -0.4643422280676073      -3.2023738648560034      2.476788182760174        -5.692123170650973
0                         0                        46.48509287793724        -0.45010460650667666     -4.305541388308498       2.1686252828216865       -4.438276080902369
0                         0                        46.56466432950811        -0.4497523077467165      -4.347166857298731       2.1645135766015073       -4.417277020628234
0                         0                        45.01382601528125        -0.45692895615948453     -3.5320341732279843      2.2479484344798664       -4.8385584975482345
0                         0                        45.30201877166143        -0.4555458168993062      -3.683549294007392       2.2324105614389893       -4.760150904805073
0                         0                        45.7773080746026         -0.4533140979936522      -3.9334289823270163      2.2067854036817147       -4.630840610652299
0                         0                        45.89922007980214        -0.45275156472821443     -3.997523279575484       2.2002125345966155       -4.597672438855469
0                         0                        45.55729593721382        -0.45433952386995535     -3.817759296564965       2.2186473279754537       -4.690698541447006
0                         0                        44.85329935663657        -0.45770917920239096     -3.447638519505297       2.256603207323586        -4.882232422713884
0                         0                        44.54992754491953        -0.4592028306435857      -3.2881431273562356      2.2729594570567997       -4.9647697278205385
0                         0                        46.40461804074759        -0.4504626570301246      -4.26323236281587        2.172964072661351        -4.460170587689106
0                         0                        48.27514944776674        -0.4433654390356064      -5.096689149804572       1.4370308985229805       -3.050626257726117
0                         0                        48.39046405843745        -0.44301896948708497     -5.147219183902365       1.3879866941058197       -2.958491693698228
0                         0                        47.24693497263134        -0.4469244902055417      -4.646132952404912       1.8743385441878928       -3.8721534852189876
0                         0                        47.47756419397276        -0.44605270738509156     -4.7471930206004185      1.776250135353692        -3.6878843571633055
0                         0                        47.94284665302493        -0.444423284646567       -4.9510764520603034      1.5783618720995811       -3.3161309751309798
0                         0                        47.70890209539624        -0.44522093966847        -4.848563627317565       1.6778603193464292       -3.503049004845032
0                         0                        47.167704855707115       -0.44723378915552664     -4.611414884274115       1.9080357316286864       -3.935457105100582
0                         0                        49.303363922902115       -0.4406510940526975      -6.6808515867951925      2.5502126876303493       -3.004228234713594
0                         0                        52.409573415807465       -0.43942378720333913     -6.8725224745602205      -0.3422078205867458      -1.4005494068515674
0                         0                        52.58336857953736        -0.43923601373449245     -6.6049242624369775      -0.5056043160327515      -0.7603101339622071
0                         0                        52.28842290423127        -0.43962049940320197     -5.504955874062432       -0.1162431974197009      1.7404831997624228
0                         0                        51.67302231224253        -0.43881402452637236     -5.3737806879905445      0.1973188648137454       0.880492104219659
0                         0                        51.948471759964484       -0.4391095695032073      -5.432493879087083       0.05697045112493271      1.2654187282704044
0                         0                        50.48819311757234        -0.4387516755325757      -5.1212294358508075      0.8010191057812488       -0.7752465649009537
0                         0                        50.62591784143329        -0.43865815839175165     -5.150586031398973       0.7308448989368808       -0.5827832528756574
0                         0                        51.3150584509257         -0.438588373436912       -5.297479207740945       0.3797104452261877       0.3802557748007871
0                         0                        51.48411647685957        -0.4386726287078351      -5.333514626454376       0.293571133793811        0.616505786298843
0                         0                        51.2934032437882         -0.4385804665848561      -5.292863310612002       0.39074431730320747      0.34999372183438027
0                         0                        50.29838358334515        -0.43892399813468785     -5.0807707471614805      0.8977318320260546       -1.0404957560936055
0                         0                        50.39374019988083        -0.4388311334020504      -5.101096405082785       0.8491452402713131       -0.9072397238613803
0                         0                        53.833092667476684       -0.4418444046128682      -6.878370141666858       -2.0914041180585485      2.716512111753712
0                         0                        53.87012292907623        -0.4419456882990917      -6.8640436531374895      -2.131710082646677       2.7538076671757743
0                         0                        53.97859655855802        -0.44225032922493035     -6.822076728212053       -2.249779307107275       2.863058428186225
0                         0                        52.6020166417744         -0.43926337464742626     -7.354656179065047       -0.7514269060752969      1.4766163572530275
0                         0                        52.83453775550899        -0.4396339458327875      -7.264697023367127       -1.0045168755039313      1.7108033089376855
0                         0                        52.893024423937064       -0.4397357276171848      -7.242069352155408       -1.0681772841725987      1.769708990118123
0                         0                        54.137356266563664       -0.4427175601535457      -6.76065482522157        -2.422582924810058       3.02295552944749
0                         0                        54.23723532196509        -0.44302451374382523     -6.72201302039155        -2.5312972977635866      3.123550142753462
0                         0                        53.41030195075122        -0.44078590481664065     -7.041941936514377       -1.6312132654855276      2.29069241925248
0                         0                        55.06416869317896        -0.4459518405160459      -6.516560521354471       0.19991253934424336      4.340654059582647
0                         0                        57.62212564235464        -0.4573716149212235      -4.000293554073124       -4.785883571469512       4.398870836430941
0                         0                        58.58344696342484        -0.46157666443376855     -3.7479094814248852      -4.77962937868476        4.349607784356735
0                         0                        57.032732324905325       -0.45477004896153        -4.155032123362309       -4.78971806400866        4.429074383417079
0                         0                        57.5067885930971         -0.45686392129114556     -4.030573995774473       -4.786633934668009       4.404781300434125
0                         0                        58.64815040149343        -0.4618579917418688      -3.73092232337878        -4.7792084291366805      4.346292047184203
0                         0                        58.715277602312185       -0.46214963070405646     -3.713298833753821       -4.778771711001198       4.342852103934208
0                         0                        56.8561595473362         -0.4539871961363879      -4.201389315016058       -4.790866816426046       4.438122881297685
0                         0                        56.34314716776681        -0.4517036407637852      -4.336074930363301       -4.794204387592359       4.4644122759210205
0                         0                        56.84551763760545        -0.4539399631315485      -4.204183228413953       -4.7909360508782015      4.438668227522424
0                         0                        58.90110411694249        -0.46295576298836016     -3.6093655487749974      -5.236357398658767       3.804560415653084
0                         0                        60.24579030436006        -0.46775846152867273     -3.6378268345243114      -4.944915504448369       2.9541495450611137
0                         0                        60.351114644359484       -0.46806981913398715     -3.7178620450989897      -4.851177162918887       3.589743953991679
0                         0                        60.098252023162544       -0.4673230308193053      -3.8017681165015844      -5.016319154814294       2.9484637405662397
0                         0                        59.03681737509882        -0.46346968452917914     -3.5737894298066064      -5.201146864558082       3.7690775295363936
0                         0                        59.81786986064469        -0.46633378256097324     -3.3690429184946424      -4.998504355268338       3.5648675888697596
0                         0                        60.04870821683639        -0.4671497247490135      -3.3085305342670495      -4.938613804243101       3.5045137869245053
0                         0                        61.5290814717611         -0.4716281735189723      -3.3950559148917905      -4.42332363554163        2.451774876949018
0                         0                        61.661228538113654       -0.47194373342739326     -3.3588427702468993      -4.375326028854996       2.3241148515280567
0                         0                        62.90526889869154        -0.4740874828188332      -3.01793006771738        -3.9234736981345364      1.1223157617749173
0                         0                        62.97134243186779        -0.47415952944932177     -2.9998234953949385      -3.8994748947912115      1.0584857490644666
0                         0                        61.25708552704782        -0.470925565820472       -3.469592783250423       -4.522116251488651       2.714535225512929
0                         0                        61.46373860263064        -0.47146590515724346     -3.412962258457606       -4.44705705179415        2.514899035241048
0                         0                        61.970093196830945       -0.47261549128351643     -3.2742025215413477      -4.2631421959657345      2.0257376625991554
0                         0                        62.73219195108107        -0.47387876658789785     -3.065359501540584       -3.9863375927878053      1.2895158982711905
0                         0                        61.00677851670744        -0.47021583552246937     -3.5381860878258706      -4.6130311523247975      2.956343085385079
0                         0                        60.88009669813783        -0.4698335689214748      -3.5729015540586797      -4.65904370689654        3.0787234349860206
0                         0                        64.28145632562196        -0.47471720719977356     -2.7122621014973305      -0.5243493630529485      -1.6083973663683935
0                         0                        66.43440383682797        -0.4727271070744795      -0.5838424354275418      -1.7424007647086626      -1.8579940198494374
0                         0                        66.51297951682687        -0.4725784364944047      -0.5593494305188216      -1.7099375281170524      -1.9261432622466321
0                         0                        66.4077402795739         -0.47277633950047127     -0.592153793836701       -1.753416709687329       -1.834868528266039
0                         0                        65.34459830259792        -0.4742369193026127      -0.9235482108014708      -2.192649682658768       -0.9127979805778175
0                         0                        66.2027990444718         -0.47313416587998214     -0.6560364949148436      -1.8380873839037264      -1.6571215471600782
0                         0                        66.31198022336446        -0.47294807001602757     -0.6220033799534121      -1.792979604476173       -1.7518151549744463
0                         0                        66.34630548195297        -0.4728874275671041      -0.6113037750996995      -1.7787982573895817      -1.7815856942548915
0                         0                        65.31388090378745        -0.4742645489046997      -0.9331232014329771      -2.205340456509944       -0.8861565635722162
0                         0                        67.37873006011846        -0.4705858431869865      -0.3450410600577314      -1.4245879419409135      -2.9610450237690173
0                         0                        66.33792194281914        -0.47290233308170515     -0.6139170272555248      -1.7822618839771138      -1.7743145915347514
0                         0                        69.12800168783372        -0.46506390163157096     -0.4952985413264521      -1.0408045969315651      -3.352373050275215
0                         0                        69.15441741730537        -0.46497526820090607     -0.49756757771475435     -1.0350090893289305      -3.3582824900210113
0                         0                        68.23965130511802        -0.4679537116508114      -0.41899175804818256     -1.2357051921377575      -3.1536409628131246
0                         0                        68.26657373871191        -0.46786872688727416     -0.42130431888625175     -1.2297985156349682      -3.1596637568949646
0                         0                        68.23604024043561        -0.4679650981937534      -0.41868157781355464     -1.2364974455882347      -3.1528331346899847
0                         0                        68.21374227976861        -0.46803534432899807     -0.41676624610967394     -1.2413895308401877      -3.147844877403653
0                         0                        68.18992082719473        -0.4681102670932856      -0.414720050763421       -1.2466158642506002      -3.1425158010746124
0                         0                        68.1232407617777         -0.4683193129212364      -0.40899242189112606     -1.2612452094853452      -3.127598861936278
0                         0                        68.29609208271341        -0.46777536138303855     -0.42383986108031024     -1.2233223065542589      -3.1662672798247193
0                         0                        70.04226109589881        -0.46190546712788166     -0.6774076947728602      -0.8141145634366858      -3.617180995079792
0                         0                        68.27378324571286        -0.4678459414554346      -0.42192359513019895     -1.2282167780311681      -3.1612765894031476
0                         0                        72.05894064533811        -0.4553978073502383      -1.5068060505397405      -1.3531239857738298      -3.004654334987185
0                         0                        72.13759628375733        -0.4551621561995061      -1.5162603434446709      -1.3898917028317932      -2.9873166277563143
0                         0                        71.35077149824504        -0.45758088292852084     -1.421685152949017       -1.0220890675812804      -3.1607528625559063