% Model:              AluminaWithRodsOriginalRydberg.mph
% Version:            COMSOL 5.5.0.292
% Date:               Mar 10 2026, 10:23
% Dimension:          3
% Nodes:              622
% Expressions:        4
% Description:        Electric potential, Electric field, x component, Electric field, y component, Electric field, z component
% Length unit:        mm
% x                       y                        z                        V (V) @ Length=0.16      es.Ex (V/m) @ Length=0.16 es.Ey (V/m) @ Length=0.16 es.Ez (V/m) @ Length=0.16
0                         0                        212.84392012489286       1.0000009874095042       -3.426145173648365E-4    4.7857180599375493E-4    -8.377133187309482E-5
0                         0                        212.9190974969923        1.0000009935831504       -3.356884667766735E-4    4.760293314518549E-4     -7.78369212026675E-5
0                         0                        212.19839798041372       1.0000009241860766       -3.548869140388433E-4    5.002987641240519E-4     -1.1211173098502059E-4
0                         0                        212.9662618840345        1.000000997214869        -3.3476498989415404E-4   4.7492287606587524E-4    -7.616563272438981E-5
0                         0                        213.0172436739483        1.0000010010518783       -3.3376676850593867E-4   4.737268660051086E-4     -7.435907298702915E-5
0                         0                        214.04881022711626       1.0000010589042867       -3.1356873610732805E-4   4.495267744175635E-4     -3.7805108155986034E-5
0                         0                        214.64289892065685       1.0000010751105661       -3.019365030514365E-4    4.355897185694957E-4     -1.675334261164174E-5
0                         0                        214.96054530482465       1.0000010786445033       -2.95716999122957E-4     4.2813787596958364E-4    -5.497418564269621E-6
0                         0                        215                      1.0000010788338212       -2.9494447770250787E-4   4.27212286333134E-4      -4.099326007533932E-6
0                         0                        213.67859506858557       1.0000010424798886       -3.208175340745356E-4    4.582118571256899E-4     -5.0923827307869374E-5
0                         0                        213.13754638971943       1.0000010097410525       -3.3141124622204643E-4   4.709046179982579E-4     -7.00960992157107E-5
0                         0                        211.9849995108068        1.0000008946457002       -3.549803229603299E-4    5.288076898182226E-4     -1.442547103920333E-4
0                         0                        211.2560757798579        1.0000007598656295       -3.7357178413799375E-4   5.143876164197536E-4     -2.151925264683996E-4
0                         0                        211.5697407134922        1.0000008221579093       -3.7825844353278626E-4   5.115274849742946E-4     -1.8083488018305616E-4
0                         0                        210.87189042479199       1.0000006700912798       -3.835382908619067E-4    5.28508674818795E-4      -2.521566243842699E-4
0                         0                        211.23486684390613       1.0000007552799854       -3.7412198466313384E-4   5.151671687713133E-4     -2.1723312809740492E-4
0                         0                        210.2250416223389        1.0000004868554087       -4.0031879250790325E-4   5.522841511478305E-4     -3.143926838120592E-4
0                         0                        210.36356299295755       1.0000005294824268       -3.9672528184553357E-4   5.471926809264005E-4     -3.0106495690063184E-4
0                         0                        210.10297675989182       1.0000004477623217       -4.034853897163515E-4    5.567707488474127E-4     -3.2613706055428793E-4
0                         0                        209.82755304253402       1.0000003542871196       -4.1063041058109206E-4   5.668941813254946E-4     -3.526367413186904E-4
0                         0                        210.4260543840283        1.0000005481085281       -3.9510413500210007E-4   5.448957565761248E-4     -2.9505239584182164E-4
0                         0                        209.59147114737115       1.0000002683547353       -4.167548288549483E-4    5.755715717015164E-4     -3.753511790165476E-4
0                         0                        209.77800212928844       1.0000003366955301       -4.11915856567191E-4     5.687154671889516E-4     -3.5740424428354345E-4
0                         0                        210.54516560970717       1.0000005825700615       -3.9201416080913987E-4   5.405177225981106E-4     -2.83592200929661E-4
0                         0                        209.49225914200895       1.0000002306418725       -4.204512876810895E-4    5.893767695113183E-4     -4.075141959276607E-4
0                         0                        209.05515870212815       1.0000000402783864       -4.385047135002651E-4    5.945299510941027E-4     -4.635143769462502E-4
0                         0                        209.14169273078662       1.0000000799084723       -4.349306247917184E-4    5.935097609039985E-4     -4.5242786066523877E-4
0                         0                        209.00924451920832       1.0000000188614597       -4.4040109270326866E-4   5.950712548852266E-4     -4.693967838846902E-4
0                         0                        209.32973297225453       1.0000001627180564       -4.271640562194534E-4    5.91292866587878E-4      -4.2833662979546716E-4
0                         0                        208.02366353445672       0.9999994699617201       -4.2117654838591534E-4   5.512178926920797E-4     -6.686340583712536E-4
0                         0                        208.12994269179615       0.9999995397434008       -4.2260255098369726E-4   5.572512217284498E-4     -6.445430903383453E-4
0                         0                        208.8534205387313        0.9999999467325662       -4.323098285397009E-4    5.983221153513796E-4     -4.8054779477979537E-4
0                         0                        207.90566770388492       0.9999993894876802       -4.1959333697150214E-4   5.445194233857364E-4     -6.953809189766957E-4
0                         0                        207.7990694893935        0.9999993140734341       -4.1816305334663184E-4   5.384679818689619E-4     -7.195442099217075E-4
0                         0                        207.69557870791          0.9999992383933509       -4.1677446379395633E-4   5.325929452428824E-4     -7.430031193571551E-4
0                         0                        207.27596730598464       0.9999989066648981       -4.1114431993349854E-4   5.087721530667721E-4     -8.381190874970912E-4
0                         0                        206.80209088856142       0.9999984840489401       -4.047860737159681E-4    4.8187080716388664E-4    -9.455356495990941E-4
0                         0                        205.69851407323787       0.9999973025452383       -4.145884008437406E-4    4.914309038781539E-4     -0.0012732853389820775
0                         0                        202.26733295802723       0.9999910944896284       -1.661590993506934E-4    1.9484290058713327E-4    -0.0024352167475711894
0                         0                        202.29079985574262       0.9999911515361537       -1.674315453357167E-4    1.961853734737673E-4     -0.002426655153360713
0                         0                        202.17717692976277       0.9999908734574405       -1.5106946233345298E-4   1.9595992966969789E-4    -0.002534926852604258
0                         0                        203.5737771741568        0.9999939646131495       -2.3699845021241117E-4   2.6958075578065177E-4    -0.001958577469412859
0                         0                        203.9946569644903        0.9999947566252415       -2.598198234551319E-4    2.936580582471038E-4     -0.0018050249204222268
0                         0                        202.97998485932862       0.9999927373060744       -2.0480123761146274E-4   2.3561163295759968E-4    -0.002175214916967594
0                         0                        204.3392494662832        0.99999535696219         -2.7850466946688357E-4   3.133711880209944E-4     -0.0016793048022378798
0                         0                        203.35095597758777       0.9999935191436241       -2.2491641190214295E-4   2.568338063309028E-4     -0.002039870901542784
0                         0                        204.5247350254129        0.9999956621728896       -2.8856225685558456E-4   3.2398227486396536E-4    -0.001611632794485729
0                         0                        201.35506823593644       0.9999885346861683       -1.166741215570255E-4    2.1938386001352228E-4    -0.0031547618471279293
0                         0                        201.36491043904607       0.9999885656994576       -1.1708589917702739E-4   2.191034309078077E-4     -0.003147341244527979
0                         0                        202.16419389623368       0.9999908404828572       -1.5052627875888902E-4   1.963298487908105E-4     -0.0025447155075823957
0                         0                        202.1167371390743        0.9999907188699011       -1.485407854886489E-4    1.9768201025271992E-4    -0.0025804958846435966
0                         0                        201.3404409920209        0.9999884884600403       -1.2612386159105426E-4   2.6556193583360255E-4    -0.0031861046267351867
0                         0                        199.98586670679998       0.9999835135795346       -2.001970531750885E-5    1.770775213003617E-4     -0.004159200181987899
0                         0                        200.525266441579         0.9999856525443123       -6.227102696243492E-5    2.1231255405496086E-4    -0.003771707602453489
0                         0                        200.78624628535465       0.9999866124194586       -8.271364590228814E-5    2.293604556520279E-4     -0.003584225580141265
0                         0                        201.15947193459837       0.9999879001103311       -1.1194850822704439E-4   2.5374055309868027E-4    -0.0033161087080628704
0                         0                        199.89819173601825       0.9999831461607324       -1.3152101900004709E-5   1.7135035781734587E-4    -0.004222183900139953
0                         0                        199.7501870605176        0.9999824881231192       -8.850305505347933E-5    8.044538702733917E-5     -0.004507412531182808
0                         0                        199.61234895068955       0.9999818589540306       -2.2891488004006533E-4   -3.432365838307305E-5    -0.004278142426951348
0                         0                        197.74046792604474       0.9999712697844114       1.1133202644941775E-4    5.0532346875797884E-5    -0.007035792037516586
0                         0                        197.99921767473768       0.9999730409775066       6.429976292565698E-5     3.880271825096315E-5     -0.006654602670138843
0                         0                        198.6764084383672        0.9999772096182183       -5.879142696585404E-5    8.10434428899498E-6      -0.005656967232209098
0                         0                        199.19390793575306       0.9999799398306113       -1.5285595389968876E-4   -1.535491367121722E-5    -0.0048945884973399245
0                         0                        198.12366902752728       0.9999738577432701       4.167856653225499E-5     3.3161096411049584E-5    -0.006471261303889975
0                         0                        199.3820508564384        0.9999808346388503       -1.870541995572239E-4    -2.3883798064616713E-5   -0.004617416900849491
0                         0                        199.44281064133244       0.9999811124727694       -1.9809834620332367E-4   -2.6638157436309484E-5   -0.0045279057648279775
0                         0                        196.80452741372238       0.9999640394526103       -2.9034778185632604E-4   6.788678440443618E-4     -0.008175136917088821
0                         0                        198.4218757503283        0.9999757220132153       -1.252568765153228E-5    1.9642805625608162E-5    -0.006031944038323189
0                         0                        195.4688846677848        0.9999507392905809       -1.5300317738820013E-4   0.0017289169149421468    -0.012025419513763165
0                         0                        194.13324192184726       0.999931916123929        -9.814382082140582E-4    0.0017228233723756148    -0.016160510756962603
0                         0                        192.7975991759097        0.9999075699526542       0.001315153818453041     -9.581910230878066E-4    -0.01966592171797288
0                         0                        191.46195642997222       0.999874407821532        -3.452742449780999E-4    -6.293858205594915E-4    -0.0299912657640391
0                         0                        190.12631368403467       0.9998274547195356       -0.002005702307997126    -3.005806182017068E-4    -0.04031660981013374
0                         0                        188.7906709380971        0.9997667106466646       7.142410655660569E-4     -4.4549370488766726E-4   -0.050945583769556706
0                         0                        187.45502819215966       0.9996819670127062       -0.003728930530087382    -5.411532731045554E-4    -0.0759500763412232
0                         0                        186.11938544622208       0.999563826309628        -0.008172102125683978    -6.368128408098528E-4    -0.10095456891277599
0                         0                        184.78374270028453       0.9994122885374309       -9.15830502776771E-4     0.0036375424180050686    -0.13903480439947202
0                         0                        183.44809995434704       0.9992039207941567       -0.005027354878109236    0.0045862794716811095    -0.18833267248398805
0                         0                        182.11245720840947       0.9989091982017777       -0.01668649019171653     0.003964157814124292     -0.2529868244774793
0                         0                        180.77681446247195       0.9985281207602945       9.567038345537071E-4     -6.749167573616432E-4    -0.331096684294522
0                         0                        178.53471216507114       0.9975397491141369       -0.007599300989767244    0.002254277400254523     -0.5472371713145279
0                         0                        179.01990674461976       0.9977940925306532       -0.006836284216760191    -0.0020161284962796344   -0.5011810395949077
0                         0                        179.51332338787518       0.9980298286191832       -0.00606033742998946     -0.006358900307816384    -0.454344444809859
0                         0                        179.7733503995745        0.9981447613829033       -0.005651419070918706    -0.008647509725506097    -0.42966189721730075
0                         0                        179.89836060354583       0.99819773179719         -0.005454828081404628    -0.009747778225118964    -0.4177955519136596
0                         0                        179.33246608081575       0.9979461046706423       -0.006344753548230386    -0.0047670974659013154   -0.4715119654447477
0                         0                        178.14145288569364       0.9973172029606844       -0.012487468362820664    -0.0057614805612331565   -0.6143334021037958
0                         0                        178.24983231327838       0.9973800004586747       -0.00804730291392275     0.004761627338439212     -0.5742788253872817
0                         0                        178.30550058786184       0.9974118224888551       -0.007959759010851997    0.004271666942713637     -0.5689946249968969
0                         0                        178.051939169799         0.9972615130386513       -0.012002318093600195    -0.0042373597005251895   -0.6299434436658657
0                         0                        177.96308611803957       0.9972048522597693       -0.011520748520183588    -0.0027244877531416023   -0.6454382738943991
0                         0                        177.94859393510893       0.997195480137546        -0.0037610864867723137   -0.020986512009568692    -0.6135924592901798
0                         0                        177.9497227371211        0.9971962114512319       -0.011448321096210634    -0.002496953822173964    -0.6477686757718288
0                         0                        175.40127232995562       0.9949253291167629       0.0033289096652922012    0.02385313098518438      -1.1542660904374742
0                         0                        175.56796568901575       0.9951148521067366       0.004421629235924485     0.0250804003230769       -1.1196456123736311
0                         0                        175.10063521198992       0.9945689281147124       0.0013581529159492345    0.021639709174183563     -1.216705295012798
0                         0                        176.3691596479293        0.9959452462072587       0.009673670010830193     0.0309791402909525       -0.9532459547276062
0                         0                        176.5777843693071        0.9961395971092708       0.011041260880936932     0.03251512663806011      -0.9099167685455996
0                         0                        174.85094831750212       0.994258658694916        -2.7861148571606265E-4   0.019801405168553998     -1.2685626677490802
0                         0                        175.0999977408731        0.9945681524580297       0.0013539741222077933    0.021635015833238347     -1.2168376911378584
0                         0                        176.27033910351054       0.9958500318266242       0.009025874900910225     0.030251580268114253     -0.973769954661293
0                         0                        174.40227443734707       0.9936685829449191       -0.003219788821230196    0.01649807203679643      -1.3617475691352183
0                         0                        174.22476029060414       0.993423581205241        -0.004306163209477631    0.015705098883984192     -1.400168172821985
0                         0                        176.64258564710738       0.9961981248128862       0.011466050595771549     0.03299222195698803      -0.8964582166917126
0                         0                        177.9185384830747        0.9971769394687238       -0.003176089430127149    -0.019977320495149664    -0.6201716378962407
0                         0                        177.9416600106673        0.997191220271483        -0.0036261251031337594   -0.020753687106545016    -0.6151103046144737
0                         0                        177.47811529733036       0.9968825710715143       0.005396274312715832     -0.005188943953619685    -0.7165808616879588
0                         0                        177.25791585822492       0.9967158129552927       0.003362868931048979     0.044033738579955184     -0.7794460139269077
0                         0                        172.99151694707547       0.9913118450223329       0.023855859385264466     0.009512267584483425     -2.024518761819518
0                         0                        173.0073924265528        0.9913439214309187       0.023493331086257285     0.009591987590226836     -2.0164815281183834
0                         0                        172.58649607758616       0.9904503481595835       0.03310481007912358      0.007478422496035364     -2.2295675218625917
0                         0                        173.5548708077005        0.9923720290950383       0.010991257897643436     0.012341194607841999     -1.7393112100894008
0                         0                        173.93773941379598       0.9930008503158034       0.0022481704994135043    0.01426380031239205      -1.545477413232792
0                         0                        172.48700099518254       0.9902260113173212       0.03537685377091293      0.006978799884137743     -2.279938613364642
0                         0                        173.3558806428933        0.9920158999188925       0.015535345280568436     0.011341949384075178     -1.8400533930931964
0                         0                        173.52485231010021       0.9923195894844078       0.011676752461227125     0.012190454291641117     -1.754508589224585
0                         0                        173.0394958691939        0.991408396542678        0.02276022526257293      0.009753197626650945     -2.000228609805834
0                         0                        173.28048626632182       0.9918757313502481       0.017257031554152036     0.010963350417483753     -1.8782230890146359
0                         0                        171.6181213474718        0.9880539154005282       -0.12384215099513085     0.23632889461183026      -2.680993498793896
0                         0                        173.9577612190705        0.9930316920892919       0.0017909577882591066    0.014364341428773741     -1.5353410310000513
0                         0                        170.40338901065917       0.9842349977174752       -0.08189270537577897     -0.028818711001472153    -3.682577342686411
0                         0                        170.46742657243786       0.98446900225278         -0.08754909644020614     -0.028022062800946657    -3.625775093138955
0                         0                        169.18865667384662       0.9791072238385782       0.025403714802223476     -0.04393037833597191     -4.76006260934119
0                         0                        169.316731797404         0.9797095944902816       0.014090932673184398     -0.04233708193464736     -4.6464581102463
0                         0                        169.81069722786106       0.9818965675758209       -0.029540673050604482    -0.036191990515234806    -4.208303582351846
0                         0                        169.9489150783346        0.9824697574108029       -0.041749354840860065    -0.03447251527546413     -4.085702336825811
0                         0                        168.16603702237015       0.9737756921130324       0.11573096178648257      -0.056652101067896865    -5.667141127353432
0                         0                        168.27970880919747       0.9744141554916123       0.10569041587172023      -0.055237986883440726    -5.566312597619685
0                         0                        168.64087128952497       0.9763666484036488       0.07378919774544102      -0.05074500757385181     -5.24595621981652
0                         0                        169.45390523348863       0.9803386198373034       0.0019745032430193987    -0.040630599551292335    -4.524783275487579
0                         0                        168.02128555033264       0.9728879510968494       -0.06860986263984614     0.14397637416353248      -6.20748819060379
0                         0                        168.08031391119033       0.9732525726404265       -0.08101316876479814     0.15163643607680122      -6.146625604159009
0                         0                        167.92288266522712       0.972320984971809        -0.1393784991217224      0.2566701068817352       -5.864641904830076
0                         0                        168.0141399588406        0.9728474627573114       -0.14890777133032884     0.2648409513019985       -5.673674971691774
0                         0                        166.3359920882244        0.9603795981291234       0.026327842532566592     0.11458572651581278      -9.185402522605294
0                         0                        166.46214642375827       0.9615217245365069       0.013154550228570372     0.12588112448152344      -8.921409305131
0                         0                        167.0468651860929        0.9663805105287954       -0.04790297220376871     0.17823470464552216      -7.697814517579598
0                         0                        167.5737211883656        0.9701457183172644       -0.10291834754246487     0.22540746482803087      -6.595304559463771
0                         0                        165.89798334865722       0.9561555751414004       0.07206560599149725      0.07536802539789278      -10.101988828980168
0                         0                        166.93055753729558       0.9654710418880423       -0.035757890956034544    0.16782094300952366      -7.9412023511640015
0                         0                        165.83982952425856       0.9555645673736288       0.07813814661538743      0.0701611445798278       -10.223682745772216
0                         0                        166.550041901345         0.9622977926758804       0.003976325686771531     0.13375096418617716      -8.737477378960126
0                         0                        164.74910151122157       0.9431685275536087       -0.8124112497467308      1.3818752710570266       -12.502623742358319
0                         0                        162.72841184020913       0.9104876327967188       -0.5105904243974351      -0.2624901350766322      -20.131904909801722
0                         0                        163.51710959069274       0.9251469641190785       -0.3699725049133349      -0.020388079573052664    -17.041603733708122
0                         0                        161.7055865175377        0.8878466387881921       -0.6929512448532762      -0.5764609976635882      -24.139572353574472
0                         0                        162.28511767016397       0.9011782913280448       -0.5896259026562802      -0.3985656211481228      -21.868834543753653
0                         0                        161.59266630260473       0.8850958124472851       -0.7130839327960814      -0.6111234727706858      -24.582020012133388
0                         0                        161.6408482252394        0.8862756733498814       -0.7044935168685811      -0.596333342456802       -24.393232035886225
0                         0                        162.67924883432664       0.9094931526509616       -0.5193557588980013      -0.27758142292623234     -20.32453699833735
0                         0                        162.7228940897176        0.9103764903220949       -0.5115741911116061      -0.2641838875120186      -20.153524739226878
0                         0                        161.0531257496351        0.8712625091805055       -0.8092793003994814      -0.776743162723335       -26.696065353799455
0                         0                        161.01626568622902       0.8702345768897063       -0.45343498278933225     -0.4246813933799274      -27.999982556967666
0                         0                        160.46175778078313       0.8541394008473501       -0.1827992600455488      -0.21187154404556807     -31.206508840957625
0                         0                        160.58753841553175       0.8580023643567016       -0.1799937269007259      -0.19331617579261362     -30.217310764850467
0                         0                        159.9708710158098        0.8378729886862354       -0.1937484740664175      -0.2842879753409413      -35.06707326304512
0                         0                        158.92547634539056       0.7969167138969309       -0.2170659696667343      -0.43850633429629227     -43.28854868188108
0                         0                        159.58300294236543       0.8236800186182395       -0.20239985937762128     -0.3415069180718078      -38.117450237222016
0                         0                        159.6368369019683        0.8257206359025225       -0.2011990945833091      -0.3335652428929947      -37.69407465659438
0                         0                        157.88008167497136       0.7473657525217936       -2.0920377395070204      2.4375226581518348       -49.64149217261195
0                         0                        155.88207007822152       0.6262294455855821       1.201360782747372        -0.6326655381917305      -70.33829407507912
0                         0                        156.88107587659644       0.6916477041340373       0.8012385781276805       -0.7018639064781667      -60.628430352087776
0                         0                        154.88306427984662       0.5511109768764303       2.3052877831488416       -0.9615298346613557      -82.0264606590421
0                         0                        153.01835789833447       0.3875971632999351       1.2643046341880009       -0.3094693990805055      -93.35108424311727
0                         0                        153.95071108909056       0.47199370732136503      1.784796208668471        -0.635499616871007       -87.68877245107959
0                         0                        152.08600470757847       0.29792134481215204      0.3554319461525124       1.0279815978803821       -97.76319806940555
0                         0                        150.14885911906376       0.11156587094791334      2.5781778889315627       -0.5657973695181109      -94.2253975663867
0                         0                        151.1174319133211        0.20378681771941398      1.4481658486255553       -0.19828084738573792     -96.20106767872095
0                         0                        149.1802863248064        0.021258504497644548     -0.5114047736401783      2.279349399932152        -88.13413560456257
0                         0                        147.2547139350592        -0.13131435458022836     0.8250472618856808       1.8622814352961177       -70.33600022647991
0                         0                        148.2175001299328        -0.05931187480042043     0.15682124412277565      2.070815417614168        -79.23506791552109