% Model:              AluminaWithRodsOriginalRydberg.mph
% Version:            COMSOL 5.5.0.292
% Date:               Mar 9 2026, 18:12
% Dimension:          3
% Nodes:              503
% Expressions:        4
% Description:        Electric potential, Electric field, x component, Electric field, y component, Electric field, z component
% Length unit:        mm
% X                       Y                        Z                        V (V)                    es.Ex (V/m)              es.Ey (V/m)              es.Ez (V/m)
0                         0                        184.93201025585114       0.956798428857047        -1.2832345553975415      0.4062334082209702       -8.635590396469354
0                         0                        185.1686895329667        0.9593083587762826       -0.4365917690879684      -0.1030208232919918      -10.380866685991947
0                         0                        214.77625079833396       0.9997989346075544       -2.4920474258749437E-4   -3.34893981733142E-4     -0.003481169904475223
0                         0                        214.94048735292432       0.9997994850101356       -2.282672259994456E-4    -3.7371234567107336E-4   -0.003221388883190457
0                         0                        212.7216898409657        0.9997884438757528       2.6475091637223613E-4    -3.2827327267348494E-4   -0.00860672134099616
0                         0                        213.54478087113566       0.999793448275876        -4.0619733256619384E-4   -4.382815916770255E-5    -0.0054290463457356
0                         0                        213.63061212483595       0.9997939084313544       -3.9525522949901415E-4   -6.411492692337539E-5    -0.005293282837921964
0                         0                        214.9643949814557        0.9997995615738606       -2.2521938832653632E-4   -3.793630670649861E-4    -0.0031835730134055495
0                         0                        214.96466690758416       0.9997995624394986       -2.251847219625347E-4    -3.794273386805713E-4    -0.0031831428945565676
0                         0                        215                      0.9997996739224311       -2.2068032156141726E-4   -3.8777854178562166E-4   -0.0031272548075804707
0                         0                        212.6679658990666        0.9997879776297534       2.2677693017669753E-4    -2.978154619661666E-4    -0.008750381763803716
0                         0                        212.71954892133562       0.9997884254433259       2.6323763857760696E-4    -3.270595173212598E-4    -0.008612446263725815
0                         0                        212.1545047878836        0.9997831321528519       -1.3615558108881487E-4   -6.718032105723637E-6    -0.010123401647405217
0                         0                        211.379935242111         0.9997744054719968       2.347232464714466E-4     3.5744406378057647E-4    -0.013014712242181758
0                         0                        211.696221998353         0.9997783173098077       3.611001525598567E-4     3.177254685340358E-4     -0.011607789799512602
0                         0                        212.1127704308204        0.9997827354651404       4.516565529470995E-4     7.85650278629646E-5      -0.009605375288884943
0                         0                        209.94466708599532       0.9997503735784318       -3.7822430573353216E-4   6.818493259928005E-4     -0.02047295828458573
0                         0                        210.24451341631863       0.9997562787207592       -2.501715279918937E-4    6.140768147204767E-4     -0.018914832928876635
0                         0                        210.37109401818105       0.9997586313415456       -1.9611384571227575E-4   5.854665420557126E-4     -0.018257067849297925
0                         0                        210.51766403195603       0.9997612514635622       -1.3351945822392963E-4   5.523381793040016E-4     -0.01749542953062644
0                         0                        210.24534771955794       0.9997562944996571       -2.4981522937839173E-4   6.138882419914893E-4     -0.01891049754477514
0                         0                        211.0678361003789        0.9997700905109023       1.0143776638926738E-4    4.2798600614446514E-4    -0.014636508265766679
0                         0                        210.64892880596744       0.9997635032289228       -7.746134697050877E-5    5.226691705360054E-4     -0.016813323558281468
0                         0                        209.7774404852457        0.9997468772970521       -3.2783710355133167E-4   4.788395698120951E-4     -0.02124094649343533
0                         0                        210.56462639873206       0.999762067360091        -1.134636465511818E-4    5.417235503983875E-4     -0.01725139367938766
0                         0                        209.34682539962557       0.999737304043323        -9.337973595791027E-5    2.052900036204619E-4     -0.02247255872060805
0                         0                        208.1323871270872        0.9997002860764277       -3.543172889735047E-4    -7.626415347576909E-4    -0.03849055110916311
0                         0                        208.3361340339216        0.9997078546378932       -3.1053966713301406E-4   -6.002511839611202E-4    -0.03580320464064357
0                         0                        208.39844426051638       0.9997100599388923       -2.971515202219166E-4    -5.505886899355161E-4    -0.03498135575976846
0                         0                        208.46513626320083       0.9997123635829912       -2.8282189281725323E-4   -4.974338327228267E-4    -0.03410171286996899
0                         0                        207.9903445771194        0.9996946857228363       -3.8483694257251955E-4   -8.758522813963054E-4    -0.04036403989471182
0                         0                        207.45006312140706       0.9996709527272768       -5.009233045569772E-4    -0.0013064673833582674   -0.047490152798900453
0                         0                        208.76824448030808       0.9997220941964127       -2.176952262686882E-4    -2.558505350807039E-4    -0.03010382740778539
0                         0                        209.03829535570765       0.9997297428181211       -1.5967135113470476E-4   -4.0614598342259E-5      -0.026541956076499673
0                         0                        206.50168198229778       0.9996199824084763       6.991162450873389E-4     0.0011028028837039017    -0.06236834934924218
0                         0                        202.49300157317828       0.9991781156133355       -0.009860218954059974    -0.010789827924881479    -0.1636771572969451
0                         0                        202.64494547821312       0.9992026775303706       -0.009311757187369096    -0.010490786368087868    -0.1596252750025542
0                         0                        202.7848856111437        0.9992247543998075       -0.00880662463528381     -0.010215369494780191    -0.15589349683892806
0                         0                        203.5717698051398        0.9993391686139497       -0.005966261311474597    -0.008666698790058547    -0.13490968618356192
0                         0                        204.19304313920992       0.9994178379401385       -0.003723692448900806    -0.007443967644903182    -0.11834221398532918
0                         0                        205.03672589371882       0.999508190445673        -6.783071542599828E-4    -0.005783511409703124    -0.09584375829285818
0                         0                        204.13944605667692       0.9994114568403416       -0.003917158258147424    -0.007549452329840278    -0.11977148533173931
0                         0                        202.1068137165608        0.9991129169133072       -0.00794228118846263     -0.007045306467290402    -0.18234924148022724
0                         0                        203.653243058679         0.9993500716388242       -0.005672172749456195    -0.008506350874156965    -0.13273704205280978
0                         0                        200.13157707340793       0.9986166475963583       -0.010455385748656454    0.0014376432215499335    -0.32014175742726625
0                         0                        200.70035626921253       0.9987874535461572       -0.009731724816418819    -0.0010050642481189698   -0.2804637185047678
0                         0                        201.2632928110515        0.9989342834347952       -0.00901549752515507     -0.0034226795644087815   -0.2411932631456537
0                         0                        201.74402551330104       0.9990421720183863       -0.008403858636143013    -0.0054872581766858275   -0.20765734795757052
0                         0                        201.11919539498433       0.9988988038581644       -0.009198833468673229    -0.0028038316230265536   -0.25124549945372987
0                         0                        201.8464603819187        0.9990630773790887       -0.008273530183373623    -0.0059271800660667395   -0.20051149112257605
0                         0                        200.73648940733543       0.998797542040978        -0.009685752424047678    -0.0011602434228734637   -0.27794307064802126
0                         0                        199.14395875183146       0.9982664481278904       -0.009184924430059027    0.014552684723810216     -0.40275508149488815
0                         0                        200.7740815550007        0.9988079412265748       -0.009637923725676956    -0.0013216885331530648   -0.2753206422799561
0                         0                        196.7063778437863        0.9969726804025552       -0.007632893504866997    -0.0018134611853142246   -0.656244555014716
0                         0                        196.84405496976615       0.9970620544716312       -0.0070962271450502185   -0.0015342542414558125   -0.6420694305583936
0                         0                        197.35163620984721       0.9973746937335507       -0.005117672069329119    -5.04887847021962E-4     -0.5898092805978674
0                         0                        197.92516829780894       0.9976960346334669       -0.002882040146333059    6.582257806186931E-4     -0.5307588851986225
0                         0                        198.24304157068474       0.9978595470235333       -0.0016429679982915835   0.0013028675423782943    -0.4980309126157749
0                         0                        198.24779748083935       0.9978619144494074       -0.0016244294286718447   0.0013125124498287732    -0.4975412479902701
0                         0                        197.67568043138687       0.9975604124258463       -0.0038545455219589977   1.5226849686555965E-4    -0.556445952180102
0                         0                        196.55116787409207       0.9968695845547615       -0.008237903006838437    -0.002128224447361049    -0.6722248467416705
0                         0                        196.45547493885513       0.9968047859803203       -0.008610914709880763    -0.002322288143886908    -0.6820773132054399
0                         0                        191.42637422690166       0.9900359487124439       -0.10283804544206987     -0.09677341479692814     -2.301190456289021
0                         0                        191.53917012578896       0.9903370041851293       0.14535678693601994      0.09862809396304328      -2.0639481114167353
0                         0                        191.9613087007783        0.9911870373933421       0.10225456906398733      0.11998836275199665      -1.9633228302832464
0                         0                        192.3550790329949        0.9919261390752165       6.087583029363852E-4     0.0455889456084293       -1.854243108494586
0                         0                        196.04890064682954       0.9965644039099544       -0.007345744027206558    -0.005320258841996939    -0.6571206332549195
0                         0                        196.3095269074883        0.9967246598021289       -0.007906992623982256    -0.008912277346446729    -0.5726548450035693
0                         0                        194.07648486263315       0.9946378693428078       -0.0030982227356435854   0.02186408542706353      -1.2963565013151594
0                         0                        194.7964965865935        0.9954872549318687       -0.00464874020380443     0.01194069770188344      -1.0630094945294104
0                         0                        195.78886460325467       0.996382571655761        -0.0067857664400759465   -0.0017363748619896313   -0.7413951393572944
0                         0                        193.137518234332         0.9932777665009745       -0.0010761943290635845   0.03480516625060304      -1.600664118669897
0                         0                        194.07259468951972       0.9946328238393185       -0.0030898453980219287   0.021917700798640638     -1.29761725891359
0                         0                        194.07391806897652       0.9946345407955489       -0.003092695244595267    0.02189946164081391      -1.2971883677930691
0                         0                        191.40990555481233       0.9899979763827462       -0.10361375186937494     -0.09969820478892188     -2.3102717784720994
0                         0                        191.39812290440537       0.9899707169802775       -0.08797520425936511     -0.05431342916372728     -2.261625411021896
0                         0                        191.34306197864004       0.9898452384227128       -0.08219895197083105     -0.05100936321034055     -2.296182356302552
0                         0                        190.79615956382935       0.9884955905370042       -0.6802967481368967      0.6493199790591007       -2.106496704589139
0                         0                        186.5974778378557        0.9705087381992326       0.5558714020614417       -0.6034647556984432      -6.461360309436385
0                         0                        187.1351526486369        0.9738329249404042       0.39757017333522526      -0.4430356402825275      -5.903685158631491
0                         0                        188.69681870084253       0.981787750147716        -0.06221267303769196     0.022927611680295        -4.283928507012757
0                         0                        189.30795869149486       0.9842121375824328       -0.24214338488064868     0.20527695394001455      -3.6500554305433637
0                         0                        187.5515660846612        0.9762013736324039       0.27497049550233044      -0.3187879763617758      -5.4717820434480124
0                         0                        187.92341367544344       0.9781643356029615       0.16549181184561235      -0.2078376791513925      -5.086102526558206
0                         0                        189.65764726525632       0.9854251048959876       -0.345098051507847       0.3096155382193544       -3.287359198179673
0                         0                        190.01270571817514       0.9865269316139289       -0.4496337080790056      0.41555636412478236      -2.9190933387685485
0                         0                        185.8341216327117        0.9652742245394182       0.7806173317700882       -0.8312317224276491      -7.2531117143479165
0                         0                        185.4467895123451        0.9620383115579016       -0.107241258095371       0.0388123632975379       -8.598550004567159
0                         0                        181.50152464490137       0.9064830579935355       1.0808631280277403       0.092174523958096        -20.69866519866258
0                         0                        181.95947573431107       0.9155933024513256       0.7652690016043238       0.13409966940342244      -19.088310609311577
0                         0                        183.33774479964086       0.9385621768188512       -0.18455649659418327     0.26027936929452267      -14.241718984046315
0                         0                        183.7327289603451        0.9439131264641986       -0.4567573582826583      0.2964399304749179       -12.85278341730077
0                         0                        181.48214758860544       0.9060813186345262       1.0942167050707163       0.09040056616585268      -20.766803330126205
0                         0                        183.20707892222825       0.936671251071815        -0.09450892516343856     0.2483169871933768       -14.701196863298009
0                         0                        181.18181111974195       0.8996856955914463       0.5463064406000484       -1.94936650420712        -21.732498115536124
0                         0                        182.078285307562         0.9178363580023092       0.6833921279644954       0.1449766140246389       -18.670524636163094
0                         0                        184.07741476241938       0.948134407673572        -0.6942954209965819      0.32799570732336747      -11.640718687921321
0                         0                        180.2315498513327        0.8774641361009793       0.3473834377308549       0.17838158734735998      -28.52905565651595
0                         0                        180.16845098248893       0.8756557377941948       0.46842273537043866      0.14459481342676384      -28.790460205564358
0                         0                        179.8239018419915        0.8653819611880598       -0.48094826964640447     -0.1654967149154043      -27.517270850345312
0                         0                        178.24947412958343       0.8118646645650096       1.4355448774187245       -0.7574980181436621      -40.46590322780423
0                         0                        178.4890232266081        0.8213222632615379       1.1439505417656273       -0.6674250497195247      -38.49576946473637
0                         0                        176.67504641717537       0.7379606822891037       3.352038024483832        -1.349499321371848       -53.41453560526321
0                         0                        176.7948209656877        0.7442993912047252       3.2062408566573737       -1.3044628371598215      -52.42946872372926
0                         0                        178.55892112392795       0.8239929457023308       1.0588663933148514       -0.6411427085359959      -37.92090523361388
0                         0                        176.82976991434762       0.7461267232902922       3.163698782431922        -1.2913216665679847      -52.14203660816793
0                         0                        179.65615105708662       0.8606501995689192       -0.27675138772462304     -0.22857276629502188     -28.89691072053097
0                         0                        177.9830514828377        0.8007917453951746       1.7598514001554122       -0.8576757226136626      -42.65705426163832
0                         0                        175.10061870476733       0.6436700143603447       -0.3607913080151377      -1.1442934873165598      -71.06215895627767
0                         0                        171.99049149143957       0.3855905493868733       2.2801718324485556       -2.45735568534883        -97.64913477361314
0                         0                        172.47461189657054       0.43175908016826664      1.9113606771512874       -2.3660987990423803      -93.08246956313599
0                         0                        172.8619887411334        0.467109318253419        1.6162504110597          -2.293078111859277       -89.42837785235369
0                         0                        173.7876153006689        0.5458456134154256       0.9110923611656752       -2.118597142227486       -80.6970239112178
0                         0                        172.82831693161933       0.46409275547497253      1.6419021680115158       -2.299425261163389       -89.74600107056959
0                         0                        172.78213581745118       0.45993812638975456      1.6770837259229765       -2.3081304193027403      -90.18162345958223
0                         0                        172.80545865457708       0.46203885216687923      1.6593159920823295       -2.3037340553540453      -89.96162118786674
0                         0                        173.95303867967218       0.5590657224654283       0.785070018631167        -2.0874147703834325      -79.13659972358317
0                         0                        171.65787862948184       0.35258940346467793      2.5335619655335364       -2.5200533403247363      -100.78664265215167
0                         0                        170.904101310083         0.2770638463696682       3.561856788668834        -2.7484199433957883      -99.17674209822472
0                         0                        171.22692415534465       0.3092212989884735       3.137891965742483        -2.7011363207696846      -100.04988074342974
0                         0                        171.35090444147332       0.32164629894536917      2.9750680490760573       -2.6829770202480248      -100.38521010642688
0                         0                        169.6923076606941        0.15886794947448335      5.1533113202404905       -2.925910460127966       -95.89920495726462
0                         0                        170.09324351728085       0.1975347689531812       4.626760297171288        -2.867185682689282       -96.98361579055162
0                         0                        170.15894637799474       0.2039127078645696       4.5404724085748285       -2.857562233428908       -97.1613222559764
0                         0                        170.5776607891437        0.24483264999635507      3.9905727227715744       -2.7962334442943018      -98.29381872902528
0                         0                        170.5987570900896        0.24690688784583312      3.962866847471261        -2.7931434847472048      -98.35087787430288
0                         0                        169.5396355506973        0.144258337115053        5.353816349641733        -2.948272230803667       -95.48627284530349
0                         0                        168.4805140113051        0.044643751272342866     1.854567287846148        -2.3043061832796994      -91.49997060461664
0                         0                        165.6669055047728        -0.1807617747503252      3.5253940462379934       -1.4752990432103843      -66.24907161074336
0                         0                        165.68726787199236       -0.1794107438326249      3.538495562231736        -1.46499192011958        -66.44973527486616
0                         0                        165.4789756445736        -0.1930379323567389      3.404476569278998        -1.5704263032499384      -64.39709173340086
0                         0                        166.97974482793933       -0.08529492606353825     4.370098652741642        -0.8107595839001469      -79.18662185481361
0                         0                        167.15380202226572       -0.07136264730729679     4.482090205133587        -0.7226544580362138      -80.9018916956866
0                         0                        165.82709003322645       -0.1700232680249146      3.6284596740629267       -1.3942160515220436      -67.8276314151474
0                         0                        165.95358128309473       -0.16136482890557227     3.7098464359923424       -1.3301880891418563      -69.07415631101888
0                         0                        164.78486258616053       -0.23536284826384693     2.957871651579172        -1.9217758617210023      -57.55686200397378
0                         0                        164.50037804418707       -0.2513381108805275      5.2638785547276274       0.11202935071518039      -58.46870469136667
0                         0                        164.01057447370337       -0.2788037575151754      3.4023582873671874       -1.070532789198141       -53.68093361169662
0                         0                        161.62181121703512       -0.3724142447153737      1.4714373354327392       -1.847938296635263       -29.802095067755296
0                         0                        162.25405808096025       -0.3520013501874926      2.5420831492182927       -1.3882245225408738      -34.77044990669738
0                         0                        162.8161928453693        -0.3312140854979249      3.4940012474141753       -0.9794900410571756      -39.18784623753939
0                         0                        163.03104227477922       -0.3226132295607666      3.857826922663655        -0.823270615241583       -40.87618707900402
0                         0                        163.12916752292568       -0.3185644117205503      4.023992058703158        -0.7519226485956345      -41.647279953113646
0                         0                        163.87812525431778       -0.2851683647245375      5.2922758661373805       -0.20734709594212575     -47.53277813624988
0                         0                        162.54282994316145       -0.3416329760127902      3.0310889522448363       -1.1782552681255503      -37.03969181326913
0                         0                        162.63409906455516       -0.3382196660606268      3.185643934362851        -1.1118924680102324      -37.756907519342256
0                         0                        163.92802192845082       -0.2827868549249992      5.376770813175511        -0.17106666548170324     -47.924878748401554
0                         0                        160.42742958870102       -0.40240423516751533     5.326797436416843        -6.12046204693128        -20.729629707702195
0                         0                        158.93358611967244       -0.42994129288275296     -0.4411016820280551      -2.4206636657797915      -16.192215310917593
0                         0                        159.13820898214158       -0.42656516958314833     -0.653658424825295       -2.4239340808521703      -16.806280154019074
0                         0                        157.4397426506439        -0.45078150535015177     1.1106628578389675       -2.3967880922588556      -11.709252144640411
0                         0                        157.84898837558188       -0.44573824055586303     0.6855493722445871       -2.4033289224037055      -12.937381830842682
0                         0                        159.14536879380967       -0.426444762863466       -0.6610958452036471      -2.424048513598006       -16.82776645606554
0                         0                        157.86330799891832       -0.4455526744453334      0.6706745314876486       -2.4035577878952274      -12.980354434936178
0                         0                        158.82549904970827       -0.4316739321673506      -0.3288237319844711      -2.4189361482460363      -15.867850433709085
0                         0                        156.58124720402702       -0.45972796991311676     1.9880775506824868       -2.3969874789146317      -9.18778178706473
0                         0                        157.3060704216208        -0.45231989621849183     1.249517985075137        -2.394651656147591       -11.308107251290666
0                         0                        156.55396921336714       -0.4599772871777064      0.2605722413413929       -0.8935802498094318      -6.796448280451926
0                         0                        155.86858194849316       -0.4650713217499488      1.2750836790680218       -0.5524171486373746      -7.6994831433890205
0                         0                        153.5947662075578        -0.47920623502597737     2.668775342920796        2.0057040459934257       -4.733286162899596
0                         0                        153.65185230725518       -0.4789339046099138      2.633785515100598        1.9414802133734668       -4.807755089075913
0                         0                        153.7555208455413        -0.4784284818182071      2.5702438766942493       1.8248495294390352       -4.942990895434464
0                         0                        154.96266236969925       -0.47151113825451185     1.8303496763764677       0.4667736474428352       -6.517709321170939
0                         0                        155.04581159299354       -0.4709646862584882      1.7793849577870056       0.3732279011464783       -6.626177641899547
0                         0                        155.28417164566622       -0.469348212232975       1.6332867439234597       0.10506461433389802      -6.937118786240541
0                         0                        153.44077401310858       -0.47991965693353456     2.763161899332651        2.178950580150115        -4.532403050881786
0                         0                        154.65467798080087       -0.4734566221143151      2.0191227892003916       0.8132667157564981       -6.115943097135377
0                         0                        152.2268700454163        -0.4844604262076067      -2.600671835397563       5.137266001062223        0.6962394014020535
0                         0                        150.86011012153548       -0.4869758089505733      -0.07048690635512855     -0.5380249343926309      -1.3075045056275485
0                         0                        149.4933501976548        -0.488034515724778       -0.40375283054165223     0.5645031507366856       -0.24171676682334464
0                         0                        148.12659027377393       -0.4876365465302217      -0.25188871726857087     1.7076294037604498       -0.40967005389460504
0                         0                        143.74724919132225       -0.48144348947840354     -3.999600048933786       4.281500052745116        3.5121272290172882