% Model:              AluminaWithRodsOriginalRydberg.mph
% Version:            COMSOL 5.5.0.292
% Date:               Mar 10 2026, 10:25
% Dimension:          3
% Nodes:              678
% Expressions:        4
% Description:        Electric potential, Electric field, x component, Electric field, y component, Electric field, z component
% Length unit:        mm
% x                       y                        z                        V (V) @ Length=0.172     es.Ex (V/m) @ Length=0.172 es.Ey (V/m) @ Length=0.172 es.Ez (V/m) @ Length=0.172
0                         0                        214.9184327087473        0.9999587743071155       3.0865042219829775E-5    -7.089295738182955E-5    -5.970030195214804E-4
0                         0                        215                      0.9999588223999206       2.9987990814106524E-5    -6.887931058940922E-5    -5.822148782783643E-4
0                         0                        213.97150391255178       0.9999580882997404       4.042002495907582E-5     -9.512006084833047E-5    -9.922938518940327E-4
0                         0                        214.22950317591733       0.9999583254833063       3.461265299620209E-5     -8.141130008709752E-5    -8.463436882379938E-4
0                         0                        212.8764874586914        0.9999566625672783       6.506803310202258E-5     -1.533036320466863E-4    -0.001611744576024421
0                         0                        213.58609830152645       0.9999576638503004       4.909521937790373E-5     -1.1559854289799887E-4   -0.001210317776529024
0                         0                        213.643651842807         0.9999577325714596       4.779973186685993E-5     -1.1254044234831895E-4   -0.0011777597427240494
0                         0                        213.8974600837193        0.9999580132757828       4.208669655270114E-5     -9.905437111967785E-5    -0.0010341804402216326
0                         0                        213.8268299796151        0.999957938820482        4.3676527809566323E-5    -1.0280729338774108E-4   -0.0010741358846857452
0                         0                        212.34189568646514       0.9999557201066614       7.71012970233187E-5      -1.8170910351500424E-4   -0.0019141631006505122
0                         0                        211.9382416278799        0.9999549013603463       8.618725036058095E-5     -2.0315721471320103E-4   -0.002142510170614287
0                         0                        214.790394894861         0.9999587112060099       2.1987396451095265E-5    -5.1608384097789894E-5   -5.290472859371675E-4
0                         0                        211.8722065520218        0.9999547599372028       -4.6570954395974695E-5   4.917793341974175E-5     -0.002159583504862894
0                         0                        211.8546351594074        0.9999547218595063       -5.154377402050159E-5    5.3591459476365344E-5    -0.002170616881244314
0                         0                        211.8249943560818        0.999954656880287        -6.694835136045185E-5    1.9233005048135965E-4    -0.0022634426611602976
0                         0                        210.07753481477138       0.9999489823134814       1.0959805292287683E-4    1.0049154925972914E-4    -0.004230184541928139
0                         0                        210.26173283060467       0.9999497424228262       9.188791736391977E-5     1.1101098341725901E-4    -0.004022991713050317
0                         0                        210.9776474121162        0.9999523342827079       2.305468734675742E-5     1.5189641957391586E-4    -0.0032177041715470978
0                         0                        211.06131177539396       0.9999525995531016       1.501058787312104E-5     1.566744394096986E-4     -0.0031235953614583423
0                         0                        209.78727408871188       0.9999477070725413       1.375058283095143E-4     8.391493988457732E-5     -0.004556680680811276
0                         0                        209.92582488171772       0.999948327607892        1.241845481558812E-4     9.182748948610708E-5     -0.004400833558257489
0                         0                        210.56397646590298       0.9999509069688318       6.282801797397042E-5     1.282719295083723E-4     -0.003683016749306489
0                         0                        210.7376082736648        0.9999515295018856       4.6133794370462056E-5    1.381879338282488E-4     -0.0034877091870058052
0                         0                        209.46215388581535       0.9999461661541644       1.6876524679076965E-4    6.534752732711979E-5     -0.004922388064775518
0                         0                        211.72672342219678       0.9999544290061977       -4.896692348665965E-5    1.9467568446884798E-4    -0.002375115412561968
0                         0                        211.79687856743968       0.9999545927962313       -6.283166896992043E-5    1.9158731896595782E-4    -0.0022951387395551137
0                         0                        209.00591924475611       0.999943541233479        1.8083595546158904E-4    -5.795582956125145E-5    -0.006134445382087961
0                         0                        208.88729677198742       0.9999428017994831       -6.750232203422968E-5    2.3228325675073158E-4    -0.005425268781596326
0                         0                        206.767946085299         0.9999240847022638       8.035831564257023E-5     -5.261558111300246E-4    -0.012237779941479232
0                         0                        206.853040999574         0.9999251144370108       7.442150288738958E-5     -4.957034145434136E-4    -0.011964248025897462
0                         0                        207.82762142864323       0.999935248013399        6.4279966522917675E-6    -1.469362769839222E-4    -0.00883152436146517
0                         0                        207.99781125719315       0.9999367044966663       -5.445628801226121E-6    -8.603148421215678E-5    -0.008284460530536109
0                         0                        207.13929028230507       0.9999284075012662       5.445076297405649E-5     -3.9326513446980016E-4   -0.01104411883471812
0                         0                        207.26574651239164       0.9999297783976115       4.5628297016264696E-5    -3.4801101689652114E-4   -0.010637633733324492
0                         0                        208.35859665617326       0.999939484203942        -3.06165265016034E-5     4.3080579910537153E-5    -0.0071247399743121775
0                         0                        208.82322228282845       0.9999424475796652       -6.30320402219553E-5     2.0935331130367274E-4    -0.0056312319453759585
0                         0                        205.70827074195483       0.999909311866077        -4.000681379068283E-5    2.8195734148539486E-4    -0.01906910762181724
0                         0                        201.48335604243056       0.9997876089459585       1.5879063105117552E-4    -1.86414399760082E-4     -0.042545193475575616
0                         0                        201.83372403726807       0.9998021162187872       1.472303822538379E-4     -1.7262032420628515E-4   -0.04026643911080896
0                         0                        202.83185998090246       0.9998390677670621       1.1429729500633812E-4    -1.333234626414992E-4    -0.03377467424743941
0                         0                        203.0267800424077        0.9998455275748264       1.078659872497667E-4     -1.2564941129378226E-4   -0.03250693590516107
0                         0                        203.30334201498027       0.999854269027229        9.874093802864081E-5     -1.1476109742813989E-4   -0.030708207678287636
0                         0                        202.13043076568465       0.9998137772576716       1.3744066523280196E-4    -1.6093890623714024E-4   -0.038336691638463094
0                         0                        202.6063806987615        0.999831286945965        1.2173689177785718E-4    -1.422006384006469E-4    -0.03524116635250962
0                         0                        203.90767572130488       0.9998716393596233       7.880119454739543E-5     -9.096832829502688E-5    -0.026777688648792264
0                         0                        204.27006536142866       0.9998809162509301       6.684429660452906E-5     -7.670095754264139E-5    -0.024420746843645702
0                         0                        203.7709973896114        0.9998679186803513       8.331084015367196E-5     -9.634938833258389E-5    -0.027666629275472587
0                         0                        201.39365460037635       0.9997837664144739       1.6175029351472858E-4    -1.8994596792420992E-4   -0.04312860165106258
0                         0                        201.4052659365886        0.9997842667567305       1.613671821587559E-4     -1.8948882677793932E-4   -0.04305308281513476
0                         0                        199.8772605644826        0.9996977782799414       6.069756078943556E-4     0.0013267550394857608    -0.06808818675960993
0                         0                        199.94596162020187       0.9997024175757824       4.5071695188880767E-4    0.0013542145005516204    -0.0670685454423392
0                         0                        200.05137796901136       0.9997094132588179       2.9153927224001563E-4    0.0014271991530918626    -0.06565627598791934
0                         0                        200.1356149188462        0.9997148964113787       6.132716548279404E-4     7.627954045084095E-4     -0.06397373341806656
0                         0                        200.66248785825888       0.9997465658150301       2.8598081617658977E-4    3.845356414162726E-4     -0.05624274111433891
0                         0                        201.09212476889826       0.9997693755111001       1.9092513241503184E-5    7.608488633348287E-5     -0.04993852732519599
0                         0                        201.1280792823478        0.9997711615422329       -3.242251011670305E-6    5.0271934600054635E-5    -0.04941095407936302
0                         0                        201.132503014646         0.9997713799794915       -5.9902514948362295E-6   4.709598880348054E-5     -0.04934604309650581
0                         0                        199.6933013408187        0.9996850321598875       4.8816479680624525E-4    0.0010613628671762854    -0.07048730621957588
0                         0                        199.8700281333773        0.9996972854957313       6.023045129381899E-4     0.0013163210395532587    -0.06818250910933443
0                         0                        199.51589611593093       0.9996723221171253       3.735869125023328E-4     8.054259421328425E-4     -0.07280095116129814
0                         0                        199.35641759167424       0.9996605460829747       4.818063442328935E-4     2.502978684706392E-4     -0.07229907833533034
0                         0                        198.51997841279888       0.9995914568948157       -0.0012806855492897284   -3.248044623287427E-4    -0.09289927655728292
0                         0                        198.70809803711512       0.9996084972838459       -8.84291739538412E-4     -1.9546088649136095E-4   -0.08826618230709471
0                         0                        197.68353923392345       0.9995051368937712       -0.0030431774428620884   -8.99906793105032E-4     -0.1134994747791751
0                         0                        197.9875158524058        0.9995385002240736       -0.0024026570806086056   -6.909045532967895E-4    -0.10601300265577862
0                         0                        198.0636567215665        0.9995465007553652       -0.0022422178423084915   -6.385531184207593E-4    -0.10413777127364199
0                         0                        198.36639950292735       0.9995768990759853       -0.001604297343902772    -4.303992160163972E-4    -0.0966816866428104
0                         0                        199.12793164976353       0.9996433838857496       3.551752740804659E-7     9.320001698576164E-5     -0.07792633231060009
0                         0                        198.97391024018805       0.9996310894368687       -3.2418902669917316E-4   -1.2698981747050198E-5   -0.08171964047668823
0                         0                        196.8471000550481        0.9994015860798414       -0.003494621057797076    0.006500553583180135     -0.1386696271433152
0                         0                        195.57093862134073       0.999201702846591        0.0031089265891068862    -0.002483063525218654    -0.18307666629446118
0                         0                        195.5886641359537        0.9992049414631122       0.003167007560136881     -0.0025330639058793736   -0.18234195108684048
0                         0                        195.56791271687246       0.9992011486843301       0.003099011645900873     -0.002474528011497057    -0.1832020887759782
0                         0                        194.2887253786969        0.9989328864952622       -0.0010924854476712653   0.0011338215934628693    -0.2362238718506653
0                         0                        194.33022821685927       0.9989426547582303       -9.564936188297679E-4    0.0010167498049185042    -0.23450359647248575
0                         0                        195.8109209057993        0.9992444444314051       0.0038952735279167428    -0.0031600089229470996   -0.17312950042708763
0                         0                        194.3340804660848        0.9989435578169763       -9.438710021782981E-4    0.0010058833262931444    -0.23434392234435109
0                         0                        194.7747417565505        0.9990427997229168       5.00038316829432E-4      -2.371402293306346E-4    -0.21607869515264966
0                         0                        195.56591638406633       0.9992007828693948       0.0030924702870720466    -0.0024688967277697316   -0.18328483594039824
0                         0                        195.21124057391683       0.9991331690979519       0.0019303085122999164    -0.0014684222224090604   -0.19798600073958283
0                         0                        193.73856260730182       0.9987966519543767       -0.0028951968943857764   0.0026857284641153       -0.2590278898781371
0                         0                        191.87696386134235       0.9981548912193366       -0.0061191932501571955   0.0040116407804475784    -0.42789023040618446
0                         0                        192.09896933740507       0.9982476836673405       -0.005673234722422649    0.003763409078842983     -0.40805714935508774
0                         0                        193.4931164079844        0.9987297565654782       -0.002872710221510033    0.0022045669018950775    -0.28350962765312815
0                         0                        193.52376463855887       0.9987384036766375       -0.0028111448941956496   0.002170298096558554     -0.2807716373483693
0                         0                        193.14322016813185       0.9986250890266944       -0.0035755722174144466   0.002595797517223275     -0.3147679578869713
0                         0                        191.76514488340572       0.9981064864654926       -0.006343812154398165    0.004136669296329387     -0.43787969053920506
0                         0                        192.75185374535374       0.9984950577232746       -0.004361738382328895    0.00303339732238328      -0.349731068352817
0                         0                        191.37046133862648       0.9979267043949093       -0.013916762409252215    0.016811604624194842     -0.4860945409394901
0                         0                        192.68552042587092       0.998471662356505        -0.004494986940073886    0.0031075668118063504    -0.3556570217346433
0                         0                        190.88373420085773       0.9976787792851493       0.01586826103027761      0.03568118799250897      -0.5292554406554473
0                         0                        190.58924323826892       0.9975076921664627       -0.013758695187874537    -0.005077001130075587    -0.5927429156628818
0                         0                        190.62501389982592       0.9975287979116766       -0.01442058970690141     -0.0038272773667813453   -0.5873160653690661
0                         0                        190.58530285679066       0.9975053553554676       -0.06860042867617722     0.023276771383279993     -0.5200939832500353
0                         0                        189.93759501270767       0.9971302520299741       0.03839323533971939      -0.008421510191892523    -0.6759004350231872
0                         0                        189.95676881143908       0.9971431793202249       0.03839997855867905      -0.007768962962654627    -0.6725324375514737
0                         0                        188.62983450819956       0.9960961291848609       0.037933310022765454     -0.05292888744788371     -0.905616733523118
0                         0                        188.67259286538254       0.9961346912944788       0.03794834767774091      -0.051473680376471265    -0.8981059610933073
0                         0                        188.41636455208467       0.9958988049437258       0.013256733297327905     -0.021680099412401788    -0.9355448983990549
0                         0                        189.66852214537028       0.9969420267875863       0.03829860530368734      -0.017578941980535667    -0.7231647643085211
0                         0                        189.69971230320277       0.996964496969248        0.03830957454708539      -0.01651743865730726     -0.7176860183287701
0                         0                        189.50267593467416       0.9968196769422398       0.038240278973177055     -0.02322323223130418     -0.7522966867899044
0                         0                        189.73794824494405       0.9969918099664397       0.03832302171696966      -0.015216144209488469    -0.7109696364099278
0                         0                        189.975965598807         0.997156057416302        0.03840672986268734      -0.007115633354927486    -0.6691604019822583
0                         0                        190.12900628862099       0.9972498777964816       -0.07185751077454938     0.01838127173130033      -0.5996933516021272
0                         0                        187.4437677804703        0.9949066275587096       0.008855374495269075     -0.04020680628671869     -1.1047197086265896
0                         0                        187.79661802440074       0.9952856000408533       0.010452151877487381     -0.03348546684713938     -1.0433444554920186
0                         0                        187.4153173439461        0.9948751274043139       -0.002458592945458804    -0.02491299851702422     -1.1437713782720493
0                         0                        186.6339349759005        0.9938819985841054       -0.03004701858964154     -0.021421929643754112    -1.3982077111531908
0                         0                        187.00725818536085       0.9943812908765897       -0.016866020365682743    -0.023089867249659335    -1.2766449625182759
0                         0                        187.34860669306676       0.9947981011086662       -0.004813959417390379    -0.024614947925805097    -1.1654939229165961
0                         0                        187.40237274323147       0.9948602944593532       -0.0029156305862443332   -0.0248551644853805      -1.1479864423316712
0                         0                        186.62243334941294       0.9938658953833259       -0.030453108847410704    -0.021370542548257987    -1.4019529091324046
0                         0                        185.1735685272096        0.9915015567364912       -0.058722411915340444    -0.010014509431002239    -1.9828354432697495
0                         0                        185.4667899876066        0.9920621387445089       -0.038281399663347315    0.0015213709634664951    -1.8407728782954678
0                         0                        185.85970606927532       0.9927480095688876       -0.010890490319660273    0.01697942412610942      -1.650409368387237
0                         0                        186.572141837444         0.9938008654785115       0.03877472943000271      0.04500797905942022      -1.3052420928796096
0                         0                        184.31114662580038       0.9896113414685354       -0.1188434434023975      -0.043943799227577074    -2.4006693468268168
0                         0                        184.3765518524978        0.9897673215073391       -0.11428392365041873     -0.04137063534207641     -2.3689812355445383
0                         0                        184.90182084430785       0.9909448368181991       -0.07766644728042138     -0.020705571276351975    -2.114494199783053
0                         0                        185.06289354594344       0.9912791392199766       -0.06643777028295972     -0.014368670087577584    -2.036456251569092
0                         0                        183.15550326399406       0.9865135035554047       -0.09561587043925357     0.1024703478220772       -3.172350785370213
0                         0                        177.45067126772153       0.9510132149839012       0.05727506457458276      -0.09544632576398726     -10.75879181742971
0                         0                        179.35228193314572       0.9676666901170254       -0.449264994343082       -0.4019515822405779      -7.490204271283905
0                         0                        181.25389259856988       0.97950011964086         0.07901720930419742      -0.014562812728714292    -4.955486888315198
0                         0                        175.9833672414661        0.931742653981245        -0.11806327694046104     -0.06081264373705153     -15.289108752865955
0                         0                        176.53244018016144       0.9396945468340185       -0.26019069267329087     -0.04040263015858159     -13.67568733294228
0                         0                        175.5450585998731        0.9247590464596643       -0.0046071764248267755   -0.07710535222057047     -16.57705521871065
0                         0                        175.61420909260133       0.9258983324781824       -0.022506767053897647    -0.07453490593553624     -16.373860199791928
0                         0                        175.25421098804395       0.9198133645179751       0.07067866727302885      -0.08791667306402928     -17.43169534716757
0                         0                        176.57100905619163       0.940219817168347        -0.2701742381946417      -0.03896895672858136     -13.562354756623257
0                         0                        175.69134684466187       0.9271526330263753       -0.04247385809614457     -0.07166755907499578     -16.147195047153136
0                         0                        174.99685488585564       0.9152299015167393       0.13729524068145338      -0.09748305517808831     -18.18792246847711
0                         0                        175.90112371808735       0.9304752859864466       -0.09677455805672253     -0.06386978116009345     -15.53077694103872
0                         0                        174.81168463313205       0.9118116625579835       0.13446378667526915      -0.04283733942190793     -18.912689151332984
0                         0                        174.70363426078652       0.9097393118264346       0.08083935326497738      0.042082137253260044     -19.193309582685856
0                         0                        174.74615179796209       0.9105616563061227       0.14415189608371293      -0.010643389729580122    -19.23631656827098
0                         0                        172.7317709345615        0.8609858033927199       1.6801894888362519       -0.6826097031718348      -30.25586651923994
0                         0                        172.78648936524965       0.8626329581521158       1.6358081524751693       -0.662499790018586       -29.948884921217463
0                         0                        173.71770259767402       0.8880892888992609       0.8805144210504636       -0.32026378295913105     -24.724588050962836
0                         0                        173.8271394590503        0.8907614751117915       0.7917517483283376       -0.28004395665269044     -24.110624854918157
0                         0                        173.18939868463065       0.8742442741207783       1.3090141673115134       -0.5144240627085637      -27.688481156594825
0                         0                        174.07236098222003       0.8965052383728973       0.5928560788818515       -0.1899210588967435      -22.734881908611868
0                         0                        174.63295809781215       0.9083687905274191       0.13816377800134205      0.016107497967368545     -19.589817325673152
0                         0                        173.3098034141017        0.8775374317966161       1.2113556136776253       -0.47017336650884545     -27.012985975215102
0                         0                        174.67783592941646       0.9092422895189135       0.10176401078315678      0.03260083092163768      -19.338043503061385
0                         0                        171.74583927144897       0.8284288553068119       -0.6182949552981256      0.32567760064969775      -35.12369707890326
0                         0                        173.5068762043824        0.8827520126356768       1.0515126926896556       -0.39774591112319513     -25.90736727734152
0                         0                        167.89360367579872       0.6241649377053774       -3.522123271700959       -0.013611153400717058    -71.20027168557283
0                         0                        169.17768220768215       0.7078120887737895       -1.6586895963562043      -0.15181237561964167     -59.08327249255737
0                         0                        170.4617607395656        0.7759000613076017       0.20474407898868563      -0.29001359783865155     -46.96627329954179
0                         0                        166.6095251439153        0.5253012901532939       -0.6356883506637772      1.2427067670894303       -81.89540757205171
0                         0                        165.3254466120319        0.41384466825914723      0.07108656208863806      3.3349148750531583       -91.70242017243375
0                         0                        164.04136808014846       0.2897950720229426       3.1222633130282684       -3.7467118368958126      -97.5201113172549
0                         0                        161.93687958327288       0.08512917353951624      -1.8176085075085155      -0.9348668245558306      -92.72294983556934
0                         0                        161.96962178853866       0.08816743459339528      -1.9181429361893012      -1.0214860247196529      -92.8638809363185
0                         0                        161.0652497511703        0.0059441420799456616    0.8587172463697872       1.3710218070377942       -88.97122478568657
0                         0                        161.07515403225287       0.006825549211413488     0.8283063063599108       1.3448201233513992       -89.01385542781236
0                         0                        161.575833153571         0.05193242370390101      -0.7090210973850686      0.02027815449881376      -91.16891062695736
0                         0                        162.8086006168597        0.1675931191258542       -4.494214294116453       -3.240996728829618       -96.47506744073235
0                         0                        161.59844911346102       0.05399539690590598      -0.7784630481685597      -0.03955215750087465     -91.26625569262796
0                         0                        162.8199085968048        0.1686843324476876       -4.5289352695084535      -3.2709118848296823      -96.52373997356803
0                         0                        160.37698963011732       -0.05427173460238321     -3.219498468243665       -1.2772648941122506      -75.83705119197178
0                         0                        160.36176204187066       -0.05542504331570511     -2.872837027850742       -1.8236284611868188      -81.73602621606463
0                         0                        159.30871184152764       -0.13591370138642897     -3.231700438196888       -1.399143723522525       -71.1316301302442
0                         0                        159.32107657961322       -0.13503340761238444     -3.227486724476518       -1.4041279518155743      -71.25614516296932
0                         0                        158.25566164118453       -0.205235398034468       -3.590563848543076       -0.9746589858582588      -60.52723404442288
0                         0                        158.26184401022735       -0.2048610038869935      -3.5884569916829014      -0.9771511000047663      -60.58949156078569
0                         0                        159.75448524523148       -0.10320457085064547     -3.079787676732476       -1.578835068025668       -75.62064474308983
0                         0                        158.99551836711842       -0.157697771440069       -3.3384319865011007      -1.2728953739381976      -67.97771813910856
0                         0                        159.79109690766018       -0.10042922423413875     -3.067310981857604       -1.5935932361703706      -75.98933046161254