% Model:              AluminaWithRodsOriginalRydberg.mph
% Version:            COMSOL 5.5.0.292
% Date:               Mar 10 2026, 10:24
% Dimension:          3
% Nodes:              596
% Expressions:        4
% Description:        Electric potential, Electric field, x component, Electric field, y component, Electric field, z component
% Length unit:        mm
% x                       y                        z                        V (V) @ Length=0.164     es.Ex (V/m) @ Length=0.164 es.Ey (V/m) @ Length=0.164 es.Ez (V/m) @ Length=0.164
0                         0                        1.1772120891403326       -0.4562460813205813      0.31665166830542457      -1.9876343690381937      9.865661287611495
0                         0                        1.1855121102638893       -0.4563278965677984      0.3153320472279817       -1.9879926735948246      9.84880594061967
0                         0                        1.194069109541984        -0.45641209844474473     0.31397156917162117      -1.988362071670668       9.831428732791558
0                         0                        0.1270372299468486       -0.44476558279349604     0.4836190601240329       -1.9422992510022254      11.998313890583205
0                         0                        0.14426650774787994      -0.4449720036631949      0.4808797757541834       -1.9430430236566991      11.963325370501934
0                         0                        0.16075127075015008      -0.4451689403198241      0.4782588618567587       -1.9437546562672168      11.929848780943075
0                         0                        1.139154000627105        -0.4558691424156249      0.3227025270942381       -1.9859914350831431      9.942948113535202
0                         0                        1.1481484318918191       -0.455958491434987       0.32127250168847965      -1.9863797167101147      9.924682586531773
0                         0                        1.1572444252303544       -0.4560486822721096      0.3198263289197716       -1.9867723826819557      9.90621081137899
0                         0                        0.05092105292039298      -0.4438464342316577      0.49572077770194145      -1.939013383092032       12.152887542430364
0                         0                        0.06821010425890783      -0.44405624261980847     0.4929719899321432       -1.9397597361171393      12.117777636668364
0                         0                        0.08710190212688886      -0.44428480683646415     0.4899683813529929       -1.9405752782896997      12.079412938118196
0                         0                        2.227386948333817        -0.46548692170063194     -1.8719981265998484      -1.9554905321049638      7.7158031012958475
0                         0                        0                        -0.4432249635693267      0.5038167203160189       -1.9368151663621518      12.256295955901805
0                         0                        4.449444435617646        -0.4804893945987995      -2.5651364574555693      0.5460143659175394       5.8281231243265665
0                         0                        5.560473179259559        -0.4864515948431738      -2.985966079307161       0.2696707128561542       4.904632942506737
0                         0                        3.338415691975731        -0.4735011702179521      -2.144306835603871       0.8223580189784911       6.751613306146169
0                         0                        6.671501922901477        -0.4909533394332152      -1.2523341715297818      -0.9584483174974245      3.892772701796126
0                         0                        7.782530666543394        -0.49510155957149404     -1.1009589230573056      -0.7207709121101757      3.5745771071410104
0                         0                        8.893559410185313        -0.49889625525801107     -1.7378346998621623      1.073839071598357        1.1577587463791588
0                         0                        12.115154253703313       -0.5093914424811077      -0.6230600407436953      -0.8401306339539403      2.6743088608132286
0                         0                        12.276142133546388       -0.5098172800338906      -0.6298317205458375      -0.8224418039322572      2.615996883913425
0                         0                        12.602852282565925       -0.5106526215199982      -0.6435742241396056      -0.7865439444287041      2.4976580705744844
0                         0                        10.504356831944316       -0.504613760766341       -0.5553046024029982      -1.017119869545425       3.257761367545573
0                         0                        10.67636228639326        -0.5051687552895371      -0.5625397176357012      -0.9982204638912862      3.1954586768321356
0                         0                        10.748205846375619       -0.5053973936347949      -0.5655616941010067      -0.9903265247828301      3.169435972426186
0                         0                        11.499167593016647       -0.5076753848373238      -0.5971496154828344      -0.9078132653865651      2.8974275202029656
0                         0                        10.196363501600983       -0.5035932122285453      -0.5423493897725393      -1.0509611852616985      3.3693206972404504
0                         0                        12.801971684432315       -0.5111427730843467      -0.6519498411930584      -0.764665345511407       2.4255343431655607
0                         0                        13.32597642746418        -0.5114237072128229      -0.7541726622676208      -0.5278482897996213      -0.01952681421107627
0                         0                        13.382984842976713       -0.5114191477558707      -1.0874722071738105      -1.077141948392125       2.24100548139819
0                         0                        13.145754846500175       -0.511392784694682       -1.0194921223603686      -0.7304065772744792      0.3626879159548082
0                         0                        13.72541870298387        -0.5121584379866106      -0.8032133863567559      -0.9574423721837348      2.076851582881062
0                         0                        14.146537109737144       -0.5129905321504875      -0.45363749533502595     -0.8102381943583001      1.8749783563126243
0                         0                        14.276582245512607       -0.5132303104415926      -0.3456853291919213      -0.7647802258035874      1.8126380958598247
0                         0                        14.001041361034028       -0.512712656833253       -0.5744154171193476      -0.8610970068003145      1.9447252393071253
0                         0                        14.410053499824846       -0.5134679755994068      -0.770538501218569       -0.4747696921482465      1.446906214849113
0                         0                        14.422690519785526       -0.5134862151818693      -0.7643889458963358      -0.48080474792453387     1.4397842421552873
0                         0                        14.441413352220525       -0.5135130732410423      -0.7552778505426438      -0.4897462023488721      1.4292324267928098
0                         0                        14.983667903143921       -0.5142052234863085      -0.4914004197865971      -0.7487104573717573      1.123628564737702
0                         0                        15.319734775750078       -0.5145510121913417      -0.3278601364371312      -0.9092057582486532      0.9342279704919889
0                         0                        14.810441116783629       -0.5140021251008838      -0.5756978023444468      -0.6659826211489488      1.2212557304902667
0                         0                        14.413907173649253       -0.5134735473192049      -0.7686631872245151      -0.47661008937368265     1.4447343610549943
0                         0                        16.953701909105046       -0.5159847314709111      0.15981558639922921      -1.6852347181513305      0.4583998202223143
0                         0                        17.130597254146835       -0.5160577951322968      0.2163210305889134       -1.7814374833208717      0.3676667036710839
0                         0                        15.871375324864875       -0.5151881681524582      -0.18591055120084832     -1.0966222241601287      1.0135465036534157
0                         0                        16.225166014948464       -0.5155146509374996      -0.07289966282162652     -1.2890277544993651      0.8320802705509749
0                         0                        16.90166702827332        -0.5159601842927399      0.1431941537997803       -1.6569360683472727      0.4850895384063172
0                         0                        15.767305563201415       -0.515079911016778       -0.2191534163995641      -1.0400249245522275      1.0669259400214344
0                         0                        16.609581781279985       -0.5157966172306983      0.049893752827209426     -1.498088426430236       0.6349058309270461
0                         0                        15.713735056354254       -0.5150220192650545      -0.23626537196932418     -1.010891139889722       1.094403311120999
0                         0                        18.036028493345217       -0.5161804447757332      -0.7219301905738575      0.8723640242219517       -0.6253613438810817
0                         0                        16.605368863905362       -0.5157939378730695      0.04854802624790722      -1.495797273428078       0.6370667194631068
0                         0                        19.559773340538534       -0.5154159167379855      -0.9972683160123594      -0.3278746020003638      -0.9105879401292327
0                         0                        21.08351818773185        -0.5134054374123569      -0.4102619729225898      -1.5960166405954652      -1.7282781788692319
0                         0                        22.607263034925168       -0.5101490067988478      0.4500752644166255       -2.0070099738786666      -1.0853147577899875
0                         0                        25.654752729311802       -0.5047575897888302      -1.6101788408168254      0.5096414972673884       -1.7956030153687337
0                         0                        27.178497576505116       -0.5020013827779256      -1.8331474839328195      0.5887811063602939       -1.083950673541338
0                         0                        24.131007882118485       -0.5074734644624712      -0.876801023213261       0.09509805281216188      -1.7691337955786537
0                         0                        28.653521943064064       -0.4994476019293354      -0.05909523483622081     -1.2229843062206385      -1.6427675912721327
0                         0                        29.005503312747233       -0.4988768184470835      -0.032914805734264974    -1.1996778663968115      -1.6004920321899707
0                         0                        29.216764648932244       -0.4985413766391309      -0.017201154642670247    -1.1856892009645321      -1.5751179872292873
0                         0                        30.571607552487695       -0.4965175737200858      0.08357227155471492      -1.0959783033938528      -1.4123913597719744
0                         0                        30.709599642614346       -0.49632381841561735     0.09383614471206769      -1.0868411597217964      -1.39581749177359
0                         0                        30.128546309623026       -0.497155138326486       0.0506173072990137       -1.1253155953203589      -1.4656062835238597
0                         0                        29.964165972713175       -0.4973976778855703      0.03839067223577075      -1.1362000362606963      -1.4853495746281968
0                         0                        29.532565620577934       -0.49804994201789876     0.006288170817576599     -1.1647784455214563      -1.53718796085586
0                         0                        28.35553159854152        -0.49994246347200144     -0.08125980307683278     -1.2427157313212547      -1.678558429938164
0                         0                        30.884373751754527       -0.4960708159595753      0.0781102272345322       -1.103129391970512       -1.2996410013573723
0                         0                        31.297124229156307       -0.4956786101169262      0.2790198867136269       -1.137604743442182       -0.600809096813137
0                         0                        31.305588144492948       -0.49567358556498364     0.2831397664986639       -1.138311699513892       -0.5864787582708573
0                         0                        31.450716358790945       -0.4956063012581601      0.41007030547939394      -1.4253512037785185      -0.6962251081713049
0                         0                        31.61385677514457        -0.49549492784241456     0.4453824106361708       -1.4676561603111793      -0.6691436733366221
0                         0                        31.788871656467236       -0.49534181028415303     0.48320496219454867      -1.2388661148128612      -0.8180727925310407
0                         0                        32.13324327887256        -0.4950985844413299      0.3589677283769106       -1.340212965671924       -0.5945049403505323
0                         0                        31.726114622113847       -0.4953944285361252      0.5058455046880397       -1.2203970326146774      -0.8588149863321632
0                         0                        32.34933271973706        -0.4949852754051066      0.2810102178169842       -1.403807010333825       -0.45421854905166015
0                         0                        32.41465084655822        -0.49495699160360046     0.2574457227586038       -1.4230298092715508      -0.4118136806718695
0                         0                        32.59136450441811        -0.494827364465994       0.611653443940245        -1.4342746507524922      -0.7035708902626823
0                         0                        32.8833414357789         -0.4946363973903655      0.560091404291434        -1.51888190466474        -0.6045261209519097
0                         0                        33.312402273718504       -0.49440824306626135     0.4843208568224666       -1.6432124779404003      -0.4589795823402909
0                         0                        33.4344446505739         -0.4943547543454543      0.46276862718251266      -1.6785771566447973      -0.4175802190226534
0                         0                        33.584763091224396       -0.49429581679722223     0.4362229498901087       -1.7221354967387477      -0.3665890149983966
0                         0                        33.72646614024185        -0.494247275755349       0.41119871870257185      -1.7631973223853663      -0.3185203345887828
0                         0                        33.76387497372355        -0.4942355976378073      0.40459245790590614      -1.774037420807506       -0.30583046465579855
0                         0                        35.87924350188728        -0.49227726054968324     0.18418053971934523      -1.893782714119837       -1.6975327773628273
0                         0                        35.93002425938553        -0.49219479937000954     -0.05663051367908167     -1.7741860416317223      -1.4436733954644438
0                         0                        35.433380401852695       -0.4929404514306969      -0.026182204207922055    -2.0743534643242754      -1.3188855319045274
0                         0                        35.528131196842835       -0.4928125653718988      -0.05109589986056662     -2.0907703033330307      -1.380533693265562
0                         0                        34.620141143048585       -0.49379786963925576     0.18765025375444688      -1.9334489158331216      -0.7897637967559454
0                         0                        34.64600308528318        -0.4937772272282681      0.18085013605740885      -1.9379298422692877      -0.8065904754993714
0                         0                        34.54677028847505        -0.4938540640086238      0.20694232556042058      -1.9207364366650808      -0.7420261679326323
0                         0                        34.226063399093896       -0.4940585770736064      0.291268729751228        -1.8651696905236612      -0.5333631158893848
0                         0                        33.887080060917626       -0.49420199615902594     0.3804007282692359       -1.8064363058590374      -0.3128087708544385
0                         0                        34.167673087228245       -0.49408861116591657     0.30662183005011023      -1.8550527901888465      -0.4953723489708892
0                         0                        34.779670687867245       -0.4936635997583533      0.14570368720969462      -1.96108953726198        -0.8935592648768491
0                         0                        34.70560980508753        -0.4937279931758084      0.16517719446143397      -1.9482575015037291      -0.8453726797128915
0                         0                        35.78515824209399        -0.4924362394654481      -0.1186783785146357      -2.1353036671236225      -1.5477644248012297
0                         0                        35.86839340687501        -0.4922956691814025      0.20054365440457822      -1.8850010514107325      -1.6957336776417904
0                         0                        36.403857170013524       -0.49151302654839224     -0.38843842430277675     -2.0117832590139955      -1.2494267666794308
0                         0                        36.75673766578719        -0.49101207089607257     -0.580116250322849       -2.198091348343077       -1.627568976673956
0                         0                        37.62681099500304        -0.4892471275912128      -0.7304225804515532      -2.184985565602765       -2.4294300039758383
0                         0                        37.640204674860534       -0.48921450592013815     -0.8471437969088811      -2.1714036826840335      -2.474357937177178
0                         0                        37.61976974519793        -0.4892642109686191      -0.7292061951398965      -2.185091626881899       -2.4229407764445057
0                         0                        37.46821580421027        -0.4896208332434572      -0.7030250493427312      -2.187374460934279       -2.2832684123673537
0                         0                        37.77350185314747        -0.48887571881214376     -0.8587443248432578      -2.1599608780671797      -2.6088270536557623
0                         0                        37.83215835521365        -0.48872095872538746     -0.8638490569876041      -2.1549255509787226      -2.6679992590237553
0                         0                        39.11314317528017        -0.4844756176916599      -0.9753300379035892      -2.0449602898860118      -3.960246395764141
0                         0                        39.14206446562013        -0.4843606603583513      -0.9778469871803708      -2.042477561602655       -3.9894219597889258
0                         0                        39.352452785658656       -0.48349900637223614     -0.9961565689363638      -2.02441692092878        -4.201659997207093
0                         0                        37.85406689094979        -0.4886622646663177      -0.8657557033554042      -2.1530448277922503      -2.69010041286392
0                         0                        37.90212475027826        -0.48853181926745093     -0.8699380615025518      -2.148919333902107       -2.7385807930700565
0                         0                        39.70731313321242        -0.48195501679405695     -0.9886486282102851      -2.2920616869258765      -4.528530184877839
0                         0                        40.377346375003825       -0.47869612444724274     -1.079185321528417       -2.2936749270722068      -5.199024042434952
0                         0                        40.43445316509594        -0.47839759315887603     -1.1508902179614022      -2.195353646034121       -5.455195983183145
0                         0                        41.201150100988855       -0.4737704719416348      -1.4966513253901752      -1.813351227124386       -6.718604609163542
0                         0                        41.22882072580291        -0.4735838383196153      -1.512215830665288       -1.8073411563791026      -6.77105261929524
0                         0                        40.83265550210086        -0.47611755219095353     -1.2893760590459546      -1.893388400966586       -6.0201451928777345
0                         0                        41.05673502181323        -0.47472097437951893     -1.4154189977234792      -1.844718239917242       -6.444874486094562
0                         0                        40.614882069306695       -0.47738363399962136     -1.1668802438526074      -1.9406888774224456      -5.607368709284515
0                         0                        41.247372883847504       -0.47345789449258396     -1.522651271270295       -1.8033116202528277      -6.806217122432436
0                         0                        41.44827902948938        -0.471921537276946       -1.0571416514553746      -1.701625422073433       -7.65121236041324
0                         0                        42.02307886463579        -0.46751692288770286     -1.2387812363136312      -1.2971912761228233      -7.674520598856667
0                         0                        41.34503366172656        -0.4727112733864425      -1.024515605669933       -1.7742697576861595      -7.647025741867324
0                         0                        42.652727170173314       -0.4626766357951197      -1.4377532085228104      -0.854165271018756       -7.700052952805926
0                         0                        42.78277189700748        -0.4616749416273988      -1.478847984044215       -0.762664674086341       -7.705326290263649
0                         0                        42.50942163865725        -0.4637796795973074      -1.392467953272451       -0.95499628506026        -7.694241887293053
0                         0                        43.743257303730374       -0.4542553837465087      -1.782366113090447       -0.0868588171360205      -7.7442741491746006
0                         0                        44.05808145649913        -0.4518152896482608      -1.88185209919493        0.13465418541611918      -7.75704032614928
0                         0                        42.210826817030835       -0.46607533267700224     -1.2981105159095598      -1.1650901895566628      -7.68213381266442
0                         0                        45.46343574282493        -0.44087385605200774     -2.4387273408339922      1.1036801627764987       -7.838318530906207
0                         0                        49.5084443526764         -0.4140266704229649      -0.7973691326513386      1.6573316073821012       -4.644814395112661
0                         0                        49.71680081574414        -0.4130802753709212      -0.6391349940734399      1.6959386637158644       -4.439569531449052
0                         0                        47.77291773595934        -0.4235714047282157      -2.115396685681848       1.3357501557011062       -6.354422624145002
0                         0                        48.35224785472081        -0.42005540190492496     -1.6754304809154852      1.4430961444052448       -5.783744232456371
0                         0                        49.31954782916424        -0.4149216342257956      -0.940824623487678       1.6223303474397408       -4.830889934330244
0                         0                        47.48594004775066        -0.425435545385074       -2.3333388921111986      1.2825751132182361       -6.637114582069657
0                         0                        47.324281046142545       -0.4265213663782845      -2.4561091315661683      1.252620783556079        -6.796359365056233
0                         0                        46.907841798772864       -0.4294370530394029      -2.7723695662433556      1.1754573817297498       -7.206579500741583
0                         0                        49.79665391066875        -0.4127289026485748      -0.5890253089729445      1.6676989817914816       -4.574218068746404
0                         0                        49.81530942252721        -0.4126437932540795      -0.5842434078676577      1.6630476060455344       -4.550098127022807
0                         0                        50.01235654472728        -0.41177230983380103     -0.5337350187869196      1.6139178790259159       -4.295333468710027
0                         0                        50.10871662747971        -0.41136441366256854     -0.5090353809684363      1.5898924352216284       -4.170748327433444
0                         0                        50.808992918840815       -0.40876075112169824     -0.3295360460216872      1.4152926610725647       -3.2653524601849497
0                         0                        50.887323953998724       -0.40850054775881        -0.27182883177432515     1.426529438860662        -3.316929084539705
0                         0                        51.48290799348946        -0.4065472880996158      0.0919420623979974       1.2415498559334672       -3.242211287537179
0                         0                        52.89498470642813        -0.40209411120178407     0.9544104538359051       0.8029797397093148       -3.0650620454593884
0                         0                        53.04440640973714        -0.4016375248949323      1.045674260481789        0.756571571380988        -3.046316646396729
0                         0                        52.74661438999179        -0.4025502562727667      0.863788813395594        0.8490613628445587       -3.0836755448979716
0                         0                        52.02947717495429        -0.40479393410917935     0.42577565545152396      1.0717935620699066       -3.17364255090102
0                         0                        52.074630221222144       -0.4046507623668648      0.4533542387015288       1.057769694550469        -3.1679779663564496
0                         0                        53.340267523603494       -0.4007417289470126      1.2263803486336116       0.6646814906893894       -3.009199985806328
0                         0                        54.60590482598482        -0.397033650862141       0.6893483318123588       1.1804329775108755       -2.4136203141658825
0                         0                        58.210381342202396       -0.38680218998228655     1.749437881627344        2.5374547282448248       -1.943812548693586
0                         0                        58.28177455154557        -0.3866624492981988      0.7520461559412652       2.190674954481892        -3.777550385557987
0                         0                        58.32160243840671        -0.38651150121876243     0.7726961964873382       2.2290181811276          -3.802469109966353
0                         0                        57.76579766396228        -0.38797677992299434     1.1472747431689072       1.264489267596744        -2.7447415685383163
0                         0                        57.10026923596734        -0.390038014017213       1.2723115681703208       1.2941435347169632       -3.0355203857716795
0                         0                        57.413797650982175       -0.38907719090220627     1.261072132113366        1.2360268590783559       -3.0935771313462936
0                         0                        55.85308703097607        -0.3936798467324565      1.3170208320612886       1.5253253995768716       -2.804576916240194
0                         0                        56.009851238483506       -0.39323791414986065     1.3114011140328614       1.496267061757493        -2.8336052890274175
0                         0                        56.71250005130312        -0.3912011735790017      1.286212403779226        1.366021727724494        -2.963716313740079
0                         0                        55.659202438643966       -0.394220130558717       1.3239712498658278       1.561264496080554        -2.7686748802243812
0                         0                        56.03876159646119        -0.3931559162223114      1.3103647291174383       1.4909081411087755       -2.8389586835435523
0                         0                        59.150213835116986       -0.3837026396479383      0.6653051140198443       2.3210253046473834       -3.1547240990736802
0                         0                        59.237895638987425       -0.3834282092392184      0.6471038840979624       2.3469349016399565       -3.104964835369168
0                         0                        61.449293872130866       -0.37794950858549037     0.18805575878973002      3.0003935952543266       -1.8500003731724597
0                         0                        61.49313477406609        -0.3778689482733002      0.17895514382875888      3.013348393750693        -1.8251207413202089
0                         0                        60.05347977611123        -0.3810845926775851      0.47780268652680036      2.587936516270055        -2.642122325738101
0                         0                        60.13052626198604        -0.38088271081739933     0.46180916515550763      2.6107034224078625       -2.598398585589983
0                         0                        61.92251701927184        -0.3771375883990837      0.08982279681487171      3.140229005667745        -1.5814471006546285
0                         0                        61.939450085565404       -0.37711089100950534     0.08630778435754394      3.1452326541345172       -1.5718376164306207