% Model:              AluminaWithRodsOriginalRydberg.mph
% Version:            COMSOL 5.5.0.292
% Date:               Mar 10 2026, 10:25
% Dimension:          3
% Nodes:              609
% Expressions:        4
% Description:        Electric potential, Electric field, x component, Electric field, y component, Electric field, z component
% Length unit:        mm
% x                       y                        z                        V (V) @ Length=0.169     es.Ex (V/m) @ Length=0.169 es.Ey (V/m) @ Length=0.169 es.Ez (V/m) @ Length=0.169
0                         0                        214.81575215967197       0.9999777785408348       3.2471303504166826E-4    -2.3977800665875293E-5   -2.9213684391748984E-4
0                         0                        215                      0.9999778307716616       3.2020829856094224E-4    -2.5027789206433226E-5   -2.7482586434857126E-4
0                         0                        214.60190568061515       0.999977713920107        3.299414384372312E-4     -2.275913605842561E-5    -3.122287593058104E-4
0                         0                        214.67842650809135       0.999977737537036        3.28070555440263E-4      -2.3195211539928096E-5   -3.050392559948989E-4
0                         0                        214.09755412497356       0.9999775046858568       3.171010931115603E-4     -6.740864481002973E-5    -3.6539042965699764E-4
0                         0                        211.52613189503603       0.999975546784941        3.5675015018910017E-4    -8.257674255673919E-5    -0.0010850857376851764
0                         0                        211.86867501885587       0.9999759064356981       3.440410570192398E-4     -5.30017443907127E-5     -0.0010148002710081983
0                         0                        212.38110533102267       0.9999763995105937       3.420062828087822E-4     -1.994616561784568E-5    -8.936887976975783E-4
0                         0                        213.3949563751506        0.9999771672672606       3.506192399491681E-4     -1.2489535180293387E-5   -5.950982600992916E-4
0                         0                        213.655205691322         0.9999773110693757       3.3820377927185064E-4    -3.283212902260857E-5    -5.100121553454073E-4
0                         0                        212.5491687406631        0.9999765470008812       3.909684073124531E-4     5.362212534976152E-5     -8.716206980974306E-4
0                         0                        212.566706332315         0.9999765622367313       3.901317584142916E-4     5.2251285495685806E-5    -8.658869446289685E-4
0                         0                        213.32336143281842       0.9999771238233129       3.540347501349572E-4     -6.893259751450387E-6    -6.185055637359937E-4
0                         0                        212.70452362675516       0.9999766784660351       3.835570430279489E-4     4.147868772008678E-5     -8.208288561633026E-4
0                         0                        213.02190162680182       0.9999769225128827       3.684161999144564E-4     1.6670584983558E-5       -7.170650567225323E-4
0                         0                        213.88923846071927       0.999977421475442        3.270390057732442E-4     -5.1125486038472445E-5   -4.3349730775332773E-4
0                         0                        212.54187297378695       0.999976540633039        3.913164592503904E-4     5.419240488180321E-5     -8.740059811849221E-4
0                         0                        212.50597056281066       0.9999765090434064       3.439302672418876E-4     -1.7135574537974207E-5   -8.607277181056361E-4
0                         0                        213.90357877646665       0.9999774276583133       3.2635488626375775E-4    -5.2246408102973874E-5   -4.2880887424701086E-4
0                         0                        211.49018361802126       0.9999754999171202       4.297401960116076E-4     1.0828378666616345E-5    -0.0013087565076830288
0                         0                        211.38229494411166       0.9999753950715804       5.362775662689501E-4     1.560363369890183E-5     -0.0010155563228160247
0                         0                        211.48021853312036       0.9999754906289308       5.407527856533534E-4     2.4135535525715568E-5    -9.361154043965314E-4
0                         0                        209.69114747205586       0.9999725175308394       4.5899020244632993E-4    -1.317429258165248E-4    -0.002387506732311806
0                         0                        209.74010926656024       0.9999726334550612       4.612278121101099E-4     -1.274769747396931E-4    -0.0023477862731340338
0                         0                        210.37271651464974       0.9999739563529915       4.901386833466859E-4     -7.235907229841132E-5    -0.0018345810161886078
0                         0                        211.28286553700931       0.9999752900853045       5.317335295558223E-4     6.9405331757366184E-6    -0.001096218842139507
0                         0                        209.18635825732486       0.9999712089844826       4.3592076067966445E-4    -1.757242786908364E-4    -0.0027970190790114202
0                         0                        209.6827179686424        0.9999724973765209       4.5860496445015997E-4    -1.3247737278732075E-4   -0.0023943452019352662
0                         0                        210.3267890786809        0.9999738712397885       4.8803974689093366E-4    -7.636064528071529E-5    -0.001871839839258982
0                         0                        209.16339453934043       0.9999711445406251       4.3487129283903414E-4    -1.777250654981799E-4    -0.002815648490624767
0                         0                        208.00000000000009       0.9999673198196314       4.642772366878489E-4     -3.606860150995317E-5    -0.003928298005206443
0                         0                        205.06224880144174       0.999948755404362        4.0682605656172655E-4    -7.341468415233976E-5    -0.008903625163213746
0                         0                        205.10086029466208       0.9999490978751132       4.0467991486536903E-4    -7.452347637126877E-5    -0.008835691447814042
0                         0                        206.06938869363788       0.9999568302850871       3.508462323438266E-4     -1.0233634880307818E-4   -0.007131646178535789
0                         0                        206.5504301473311        0.999960057337218        3.241085208998129E-4     -1.1615023878164266E-4   -0.006285293697260386
0                         0                        206.01279211761403       0.9999564238404738       3.539920380433159E-4     -1.0071108592057954E-4   -0.0072312231528286475
0                         0                        206.0389894818808        0.9999566126757156       3.525359108564885E-4     -1.0146338608052474E-4   -0.007185131066492545
0                         0                        206.04149920096123       0.999956630702835        3.5239641327677873E-4    -1.0153545659719043E-4   -0.007180715424269124
0                         0                        206.97858631282395       0.9999625871583313       3.003103308572008E-4     -1.2844544116319412E-4   -0.005531988487859962
0                         0                        207.0207496004806        0.9999628188412579       2.9796677029025886E-4    -1.2965622872229687E-4   -0.00545780568529608
0                         0                        205.44512328807576       0.9999520354162841       3.855447561917913E-4     -8.440954972144254E-5    -0.008229989306499874
0                         0                        204.96672866739365       0.9999478082840001       1.6374522732576224E-4    1.807018561237328E-4     -0.01003774807645641
0                         0                        204.76080125494482       0.9999456869202817       2.920307240827924E-4     2.3144279734310658E-4    -0.010565275998160928
0                         0                        202.50297176639893       0.9999144317711461       1.6031545307981787E-4    7.719308220117682E-4     -0.018501267501140006
0                         0                        202.68225888509838       0.9999176824921812       1.4304957437372146E-4    6.629974548812145E-4     -0.017761471932110612
0                         0                        203.6318865106719        0.9999326887352644       5.1597630971400577E-5    8.601158313581436E-5     -0.01384300687641371
0                         0                        203.99046074807075       0.9999373872092672       1.7065873294086487E-5    -1.318551505846699E-4    -0.012363415738349204
0                         0                        202.7673421547704        0.9999191787607449       1.3485580430838695E-4    6.113015657511767E-4     -0.017410391350638932
0                         0                        202.81294637199647       0.9999199684571709       1.3046398359506384E-4    5.8359282173015E-4       -0.01722221387260703
0                         0                        204.1119133565689        0.9999388583452482       5.369628581775032E-6     -2.0564874859019255E-4   -0.011862263718853683
0                         0                        204.25183572186702       0.9999404777481706       -8.105308069161765E-6    -2.9066441749137084E-4   -0.011284899619255384
0                         0                        203.11748687064767       0.9999250219712895       1.0113583478243982E-4    3.9855653932363566E-4    -0.01596558309447005
0                         0                        201.37405702212598       0.999890916027925        -0.0011668820354628906   8.686609918981958E-4     -0.024356141823159483
0                         0                        197.623545952294         0.9997484232222938       0.002611373782940518     3.269321505601219E-4     -0.05648587062944088
0                         0                        197.63359261318487       0.9997489902189902       0.0025966621090880437    3.3352568435773833E-4    -0.056386794762268266
0                         0                        197.5069842946863        0.9997417721428677       0.002782059060130848     2.504337773423515E-4     -0.057635351778827726
0                         0                        199.44052065840611       0.9998347781383823       -4.9285282102573547E-5   0.0015193964018109796    -0.0385676442026579
0                         0                        199.50382481765539       0.9998371998709598       -1.4198375771456995E-4   0.0015609423556739443    -0.03794336569433199
0                         0                        198.09758537297273       0.9997740917381619       0.0019172214221470085    6.380399832286443E-4     -0.05181109687151775
0                         0                        198.18893092796324       0.9997787833090317       0.0017834609584213013    6.979892541831845E-4     -0.050910286127191284
0                         0                        199.73582119754937       0.9998457372081059       -4.8170410093462124E-4   0.001713199504997931     -0.0356555167489887
0                         0                        199.7814939750446        0.9998473554089561       -5.485843327051043E-4    0.0017431741404010381    -0.035205111376740206
0                         0                        197.8092787104478        0.9997587444032116       0.002339398865215614     4.488268990426869E-4     -0.05465425370923338
0                         0                        196.59636788088193       0.9996851997281508       0.004115506249888767     -3.4719563194229863E-4   -0.06661546087747183
0                         0                        198.4700357994457        0.9997927048080231       0.001371829348087772     8.824758675274325E-4     -0.048138150268599134
0                         0                        196.5373715385857        0.9996809913337514       -2.909113992473067E-4    1.5992118443364234E-4    -0.07160739809449979
0                         0                        196.5912139385413        0.9996848333712774       -5.134037259466595E-4    2.3691315294627202E-4    -0.0711068021854544
0                         0                        196.41669567942094       0.9996720720211385       -1.060027156327692E-4    7.006750095328584E-5     -0.07520567057161998
0                         0                        196.4068800219929        0.9996713327946384       0.0019744949734672446    1.7070526000040331E-4    -0.07660855473352512
0                         0                        195.94295641931262       0.9996336378354134       8.283804896151992E-4     0.00572858965020373      -0.07972352921527204
0                         0                        192.06260726592933       0.9991123301441853       0.0031860444315228165    0.001952903618075652     -0.2038159972790936
0                         0                        192.25279147795933       0.9991502734847676       0.003309290010008681     0.0025314566251495307    -0.1937337507052348
0                         0                        191.78822594934059       0.9990547016494545       0.0015559418635859856    0.001599323557286425     -0.21050953538309614
0                         0                        192.51069635669236       0.9991991321992699       0.004188260882855843     0.0036789894866160466    -0.18515566575592857
0                         0                        192.9218224117738        0.9992724435827836       0.005589427969248106     0.005508271121982489     -0.17148134426656725
0                         0                        193.26338484358737       0.9993253464205535       -0.0013987436210172177   -0.0054219849843661905   -0.1503814753699544
0                         0                        193.37738047920553       0.9993423179189971       -0.001303996225196613    -0.0049476118215920906   -0.14737551070143695
0                         0                        194.20717529052956       0.9994555309997679       -6.143128264852749E-4    -0.0014945639317573978   -0.125494551211915
0                         0                        194.7930383757461        0.999524528214844        -1.2737311790189665E-4   9.43404180883789E-4      -0.11004585683683032
0                         0                        195.4999101596958        0.9995957286268015       4.6014288938778236E-4    0.003884929107783819     -0.09140626948624231
0                         0                        195.5751307503662        0.999602529660331        5.226624328003027E-4     0.004197946613572867     -0.08942276865582244
0                         0                        194.2456056057683        0.9994603343227977       -5.823714959731774E-4    -0.001334642807805153    -0.12448117759296906
0                         0                        194.24847658106998       0.9994606915965106       -5.799852867873767E-4    -0.001322695739574442    -0.12440547249899225
0                         0                        194.25958196810004       0.9994620715413844       -5.707550519140625E-4    -0.0012764825881532715   -0.12411263320854005
0                         0                        191.58528194770062       0.9990104854780996       0.0024519109266094574    -0.001118109016630342    -0.22523797129088052
0                         0                        191.38289753526809       0.9989632641738895       4.574020692302838E-4     -0.004911198733168476    -0.24085301067708542
0                         0                        191.0987801983575        0.9988918309734063       4.8285818843396555E-4    -0.009625637024242906    -0.2619899432895636
0                         0                        188.91279061603328       0.9981635099498201       0.010216152924243715     -0.015283670392621573    -0.4291962958934299
0                         0                        189.0841655518183        0.9982357733893077       0.009563372498007539     -0.013036475246764212    -0.4141410236137304
0                         0                        190.0057854071954        0.9985801448636155       0.006052850967705581     -9.515127872017359E-4    -0.33317680444406506
0                         0                        190.74990977400742       0.9988037476696865       0.0032184235240038106    0.008805997303301893     -0.26780554755067953
0                         0                        189.43050011681197       0.9983739360464188       0.00824415727061023      -0.008495079798327865    -0.38371556406817575
0                         0                        189.54083016974255       0.998415736718723        0.007823901539325107     -0.007048350390251201    -0.37402307910873134
0                         0                        190.82637988338416       0.9988239699302305       0.0029271429445714148    0.009808730041267921     -0.2610876555050581
0                         0                        190.97910345008634       0.9988628196411502       0.0023454070303330354    0.011811354615426595     -0.2476709042765748
0                         0                        188.58575072388894       0.9980184476420667       0.011461873245593779     -0.019572059793445007    -0.4579267202111552
0                         0                        187.88025196277664       0.9976725988301484       0.014099351154001738     0.0015001694353315997    -0.5345529800045341
0                         0                        188.0896558728198        0.9977825485863325       0.022193738230157578     -0.008987395032875156    -0.4943604056340405
0                         0                        187.54527827753193       0.9974847319494159       0.02464349305120095      -9.956616344197755E-4    -0.5871284475719847
0                         0                        187.38947660419797       0.9973937458120115       -0.08336564411331437     -0.054564814902260395    -0.4717369842681478
0                         0                        187.26275497229037       0.997331722633745        -0.056973992161402975    -0.019589397670415565    -0.5238066222837006
0                         0                        187.29955139899306       0.9973501948033557       -0.07781192994750086     -0.04849949039271406     -0.4968681705611999
0                         0                        184.96103818468575       0.9954971072297341       0.012732530157236965     -0.028637486750412222    -1.0703212164586589
0                         0                        185.19062555768087       0.9957365817496323       0.005779573379228964     -0.027734974758686803    -1.0158084933227691
0                         0                        185.74148178853613       0.9962601218158084       -0.010902875285747626    -0.025569549249258472    -0.8850143960316252
0                         0                        182.6593213970811        0.9924045700096404       0.08243905247604744      -0.03768557583038046     -1.6168358106335177
0                         0                        183.94443853780402       0.9942863260572413       0.04351982178090452      -0.032633757800397234    -1.3117004106522074
0                         0                        186.27643050758104       0.9966995853285311       -0.027103571663687376    -0.023466656448064782    -0.7579973435133951
0                         0                        184.3635943844383        0.9948152750361741       0.030825863716088975     -0.030986048812479794    -1.2121769642174485
0                         0                        184.3966241395635        0.9948551834263326       0.029825571510258442     -0.030856208265504392    -1.2043344514829073
0                         0                        186.3415044021973        0.996748408439311        -0.029074307121504717    -0.023210849826497792    -0.7425463404624963
0                         0                        182.51681777154602       0.9921717541862907       0.08675471468427531      -0.038245760082816105    -1.6506715594524053
0                         0                        182.31708665045537       0.991803473677343        -0.020557167220341732    0.023130175973353317     -1.874930807240113
0                         0                        182.3887996739522        0.9919371311629328       -0.02651657931174789     0.025126698929437197     -1.8526343984293905
0                         0                        182.27655184612848       0.991727218299151        -0.017188691157757674    0.022001668717660294     -1.8875335469415262
0                         0                        182.4329011625627        0.9920185327453771       -0.030181449814274508    0.026354504286090652     -1.8389227353133852
0                         0                        180.9991870550043        0.9889794223536479       0.14818479066008194      -0.0484996527435726      -2.600132145969525
0                         0                        181.552816935909         0.9903230686597457       0.176165256837038        -0.087518611645379       -2.253819392564523
0                         0                        179.74964204780306       0.9852420996776783       0.08503275892084616      0.039566304249120776     -3.3817615104112164
0                         0                        179.77993787331775       0.985344265866485        0.0865639105988123       0.03743110235447489      -3.362810526888566
0                         0                        179.707947005823         0.9851005532538974       0.13865909565890888      0.10186879426591133      -3.4398360735260383
0                         0                        180.7995913343313        0.9884479870072481       0.138097218612387        -0.03443246184528448     -2.724985492904544
0                         0                        181.90747031651392       0.9910567024350331       -0.009201203257713786    0.07755982620429336      -1.9451649594616924
0                         0                        181.70176752855073       0.9906418503080188       0.004211183046338718     0.07272933731085374      -2.088345049055249
0                         0                        178.7163016183194        0.9813651954155571       0.07585946237981034      0.16585284940367728      -4.093820383534563
0                         0                        179.24979400676233       0.9834553667565864       0.10964485257426304      0.13143025557333488      -3.7419852860820697
0                         0                        178.5552107549934        0.9806971613315688       0.06565778416995727      0.17624693463939423      -4.200058861954659
0                         0                        178.34540960146478       0.979801469817881        0.03904432687582293      -0.23759935869352944     -4.951395154399677
0                         0                        177.95808876359098       0.9778114125791838       -0.0326699959874901      -0.3317101889833509      -5.111634076527812
0                         0                        177.49231148468778       0.975284733844243        -0.14653210561965047     -0.2941102431977356      -5.737666004793109
0                         0                        175.07436082598466       0.9572248229161618       -0.4015701280614188      -0.10059375308847329     -9.766715202889104
0                         0                        175.18616479636302       0.9583049024169434       -0.3712542628572253      -0.10659374037332175     -9.554235513370418
0                         0                        176.2833361553362        0.9676436595127296       -0.07375410331968624     -0.16547370842052356     -7.469098206399167
0                         0                        176.50694409609298       0.9692662970361472       -0.01312237291136853     -0.17747368299058852     -7.0441388273617065
0                         0                        175.37119815309586       0.9600402212248353       -0.321082106340949       -0.11652360050209132     -9.202585835312085
0                         0                        176.8770108095585        0.9717429645005339       0.08722194012156592      -0.19733340324852833     -6.340839471245374
0                         0                        175.54867389822573       0.9616435268996649       -0.27295921098964726     -0.12604787956482877     -8.86529914419829
0                         0                        177.23196229981835       0.9738739345066948       0.18346773082407708      -0.21638196137380206     -5.666266089017654
0                         0                        173.86538549663305       0.9440282240545383       -0.10387673685394816     0.4922356490824029       -13.145650366475365
0                         0                        175.75626999611632       0.9634429770256651       -0.21666912308592146     -0.13718857469021328     -8.470769734591471
0                         0                        177.3501122021555        0.974530138606919        0.2155043078883523       -0.22272250464195054     -5.4417261690102805
0                         0                        172.33711259554858       0.9218917937918963       0.061780027056641984     0.24940665321190328      -17.949270404381878
0                         0                        170.8088396944641        0.8891654569480282       -1.0560144177901236      -0.5886367127774821      -24.878599959144346
0                         0                        169.2805667933796        0.8458492135229316       -0.8887919385284704      0.8206310048260548       -34.86407117490211
0                         0                        167.7522938922951        0.7876432526938192       1.0841606929062948       -0.834326809366928       -44.84352979648771
0                         0                        166.2240209912106        0.7087829107690371       -0.07868345083537065     -0.5890231833150494      -58.358381156484015
0                         0                        164.69574809012616       0.6092681877485937       -1.2599162057791773      9.192833757816288        -80.24916439646002
0                         0                        162.3019034865285        0.409691347694391        4.626417041887979        0.6862236388813869       -94.9065979158877
0                         0                        162.34044200088277       0.413341749831736        4.573878896030742        0.6973515082274204       -94.53516954753125
0                         0                        162.42656065413803       0.42144725213995127      4.456476488554802        0.7222179862880864       -93.70517100193096
0                         0                        162.66534358651745       0.4435476856511219       4.130952457861511        0.7911657731477035       -91.40381724060745
0                         0                        162.68438117831042       0.4452860476898009       4.104999205870753        0.7966628152024917       -91.22033581233829
0                         0                        162.58704890629008       0.43636171272816277      4.237688729317332        0.7685584415818489       -92.15840951836117
0                         0                        163.6027472635238        0.5249954475995574       2.8530243401142616       1.0618380036944934       -82.36926248219129
0                         0                        162.50974643692146       0.4292088437892705       4.343072356030751        0.7462376076402428       -92.90343901803398
0                         0                        161.41674561031917       0.3219083763177361       1.7988583075104014       -0.10951651214780611     -97.55449592984192
0                         0                        161.34533346638133       0.31492901099000353      1.867911068594976        -0.3822005836936597      -97.91268774163564
0                         0                        161.34721477993912       0.31511320658055         1.8660919116775272       -0.3750168721776248      -97.9032513758487
0                         0                        160.3851134519341        0.21549494269986935      2.6655737536780517       0.7990968907171911       -101.17800589015717
0                         0                        160.4886956751126        0.2259970904196656       2.8775151897143445       0.7703670354428738       -101.60095361716196
0                         0                        159.4105712451136        0.11883168309319928      0.6715455463890746       1.0693986442566608       -97.19874768738026
0                         0                        160.13830342888144       0.19064756141372585      2.1605713593596025       0.8675528093581484       -100.17022931374387
0                         0                        160.3719092129148        0.21415932008416338      2.638556324493285        0.8027592554009324       -101.12409024026404
0                         0                        159.17103593197697       0.09566629207173097      0.18142806590090066      1.135836828998503        -96.22067526221217
0                         0                        159.19087608841187       0.0975761289614098       0.22202336417672797      1.1303339076911492       -96.30168674092015
0                         0                        160.2894132075076        0.20583088090936466      2.46975977507827         0.8256405783087502       -100.78724191915963
0                         0                        160.3701278744508        0.2139791903309294       2.6349114960609494       0.8032533324220381       -101.11681666540478
0                         0                        159.0467563356439        0.08373955881591481      -0.07286263484476496     1.1703073656083394       -95.7132158626242
0                         0                        160.87691998592797       0.26574875729765485      -2.1449802537202416      1.0432259536332555       -103.83513327697975
0                         0                        158.9241299271202        0.07245351916247844      4.905865774341406        3.610860865329359        -91.69224226240975
0                         0                        158.82411725209423       0.06331116978928056      4.729419856108457        3.531150933626769        -91.13157223558613