% Model:              AluminaWithRodsOriginalRydberg.mph
% Version:            COMSOL 5.5.0.292
% Date:               Mar 10 2026, 10:25
% Dimension:          3
% Nodes:              681
% Expressions:        4
% Description:        Electric potential, Electric field, x component, Electric field, y component, Electric field, z component
% Length unit:        mm
% x                       y                        z                        V (V) @ Length=0.173     es.Ex (V/m) @ Length=0.173 es.Ey (V/m) @ Length=0.173 es.Ez (V/m) @ Length=0.173
0                         0                        213.5642890601751        0.9999459427109646       2.040012028601268E-4     9.177680695415802E-5     -0.001394416001481602
0                         0                        214.2314261681455        0.9999467985569254       1.9415476657513864E-4    9.909841645594497E-5     -0.0011713113442652912
0                         0                        214.7212842907701        0.9999473322093063       1.8692483316584685E-4    1.0447444796568561E-4    -0.0010074925021612557
0                         0                        214.79248514143083       0.9999474030959458       1.858739628843864E-4     1.0525585375376068E-4    -9.83681442651374E-4
0                         0                        214.7139371624943        0.9999473247981034       1.87033271117798E-4      1.0439381546234472E-4    -0.0010099495361792776
0                         0                        215                      0.9999476000239729       1.8281120132712658E-4    1.0753326063195345E-4    -9.142841166394078E-4
0                         0                        213.1862772565279        0.99994539171206         2.084142900358188E-4     9.223488426357562E-5     -0.0015019958004458545
0                         0                        213.24095428972265       0.9999454743667028       2.087733781905854E-4     8.822831455290725E-5     -0.0015025459380826334
0                         0                        211.37795972761037       0.9999407730469763       2.3258577850526763E-4    -5.716007177625215E-5    -0.003606249858957966
0                         0                        211.6269456182438        0.9999416348825737       2.2925762436187824E-4    -3.6589991736946104E-5   -0.00331651668849986
0                         0                        212.28211849206915       0.9999435580244557       2.2050003443752075E-4    1.7537406250767162E-5    -0.0025541228296468432
0                         0                        212.5789670584075        0.9999442649421464       2.1653210737326845E-4    4.206168247833375E-5     -0.0022086941143566463
0                         0                        212.20823633291545       0.9999433661444037       2.2148760522355815E-4    1.1433598984922355E-5    -0.0026400960233239346
0                         0                        212.11151423664455       0.9999431053456997       2.2278047372736864E-4    3.4428598780777975E-6    -0.0027526469776013585
0                         0                        212.85869185299703       0.9999448372430814       2.1279307127031188E-4    6.517127070537754E-5     -0.00188319152719707
0                         0                        212.8934768324873        0.9999449020458532       2.1232810610172237E-4    6.804504715773874E-5     -0.001842713882547642
0                         0                        211.26514812074169       0.9999403588155439       2.340937132316867E-4     -6.648005282272607E-5    -0.003737523419843569
0                         0                        210.98573847376113       0.9999392688869357       2.5306168568306475E-4    -9.898769334881763E-5    -0.004041493854174405
0                         0                        211.07211906622538       0.9999396142370676       2.404092466719021E-4     -8.209362260913622E-5    -0.0039545182371512055
0                         0                        210.65112796877742       0.9999377946409934       2.1739036651524657E-4    -4.440774992175989E-5    -0.004807516655148447
0                         0                        210.5608944918613        0.999937356781145        2.3477913387637273E-4    -8.196985288932979E-5    -0.004897525510131118
0                         0                        210.50083970532066       0.999937060862496        2.3266371800900743E-4    -9.464105289680447E-5    -0.004840707338246375
0                         0                        210.35363314455392       0.999936321275247        2.6886002422088495E-4    -1.711174193133047E-4    -0.005207584600782411
0                         0                        210.15325102236528       0.9999352270340578       3.798091169073814E-4     -2.371003688494966E-4    -0.0057024384203430145
0                         0                        210.10931423347          0.9999349741590638       9.525880224714456E-5     2.1296840003515172E-5    -0.005373075927280979
0                         0                        209.55663078017          0.9999316410043391       1.43900073467762E-4      2.6055550037540343E-5    -0.006688637535347652
0                         0                        209.61880449228545       0.9999320522611225       1.3842821010712214E-4    2.5520222393993208E-5    -0.006540644415395036
0                         0                        209.7821984261264        0.9999330891884001       1.240480280415568E-4     2.4113369619271907E-5    -0.006151715119358414
0                         0                        208.7729472973608        0.9999256682821895       2.1287148995696725E-4    3.280321494969485E-5     -0.008554052352820918
0                         0                        208.89051691633966       0.999926657527765        2.0252427258071748E-4    3.1790918132657E-5       -0.00827419943499308
0                         0                        208.98766053131286       0.9999274500820259       1.9397473330684534E-4    3.095449291912189E-5     -0.008042966873890833
0                         0                        208.71939334252386       0.9999252067654513       2.1758473472743844E-4    3.3264324827086966E-5    -0.008681527721350335
0                         0                        208.74154173896898       0.999925398463535        2.1563547029757046E-4    3.307362266724567E-5     -0.008628807525155935
0                         0                        208.92869026919803       0.9999269716473954       1.9916466350267115E-4    3.146223819072702E-5     -0.00818333476858868
0                         0                        207.99883540655298       0.9999183332871112       2.8100051756041466E-4    3.9468466496828114E-5    -0.010396683749860358
0                         0                        208.17610921379577       0.999920138944904        2.6539877782738586E-4    3.7942105080901456E-5    -0.009974715961050151
0                         0                        207.71552606949624       0.9999150822492815       0.0011188248667366452    3.757320353088289E-4     -0.012201230668940966
0                         0                        206.63652096156255       0.9998997068585854       8.223626990471189E-4     -8.591940888891259E-5    -0.01629796842272313
0                         0                        206.7052942034142        0.9999008187437988       8.412584985464377E-4     -5.649483404113198E-5    -0.01603685201630256
0                         0                        206.89095166423408       0.9999037306701176       8.922688347752228E-4     2.2938557037832652E-5    -0.015331952731386878
0                         0                        207.02496378563822       0.9999057512440309       9.290893500661923E-4     8.027553258216358E-5     -0.014823139090621495
0                         0                        207.51157701795594       0.9999125148560574       0.0010627888228853521    2.884726021648021E-4     -0.012975578976526236
0                         0                        207.63366049787305       0.9999140706656244       0.0010963318827137414    3.407059182336525E-4     -0.012512055683187029
0                         0                        206.45039505083633       0.9998966076188375       6.269542212464785E-4     7.158513041360948E-5     -0.016443627007447503
0                         0                        205.79538461550416       0.9998845485890093       4.0929260785915744E-4    -8.237598478899599E-7    -0.020377251493371773
0                         0                        206.3587422561593        0.9998950752909236       5.964977674111083E-4     6.145326572948306E-5     -0.016994042173280377
0                         0                        205.3456146865123        0.9998745733815957       -3.7819601929101054E-4   -5.122636258931834E-4    -0.023495681721261263
0                         0                        205.58950753156597       0.9998801296037542       -3.9813306813840654E-4   -5.572141139964515E-4    -0.022067132202508333
0                         0                        204.81756435124487       0.9998613498648578       -3.350304835585405E-4    -4.1494170471878533E-4   -0.026588622197895262
0                         0                        204.33454471425495       0.9998478237627635       -2.955459873383859E-4    -3.2591913259238936E-4   -0.029417805111851436
0                         0                        204.74995316167679       0.9998595387888611       -3.2950359914352134E-4   -4.0248067509196517E-4   -0.02698464009781887
0                         0                        203.33567441498187       0.9998139109135078       6.825007423927332E-5     -4.2870555427043655E-4   -0.03777068796335925
0                         0                        203.49907296111465       0.9998199804969459       -1.5093158577506038E-5   -3.608879562637668E-4    -0.0365210800126583
0                         0                        203.54402544469963       0.999821614483337        -3.802166920552352E-5    -3.4223069445449283E-4   -0.036177301060952516
0                         0                        203.5660982303141        0.9998224111541603       -4.928013725979952E-5    -3.330695157011121E-4    -0.036008497059626166
0                         0                        204.0654264100723        0.9998394378276956       -3.0396798953091775E-4   -1.258263147008165E-4    -0.03218983111591456
0                         0                        204.2131654621625        0.9998441100613266       -3.793239245624136E-4    -6.450809685532022E-5    -0.031059980829752476
0                         0                        203.26749761776475       0.9998113180556443       4.287199300421207E-4     0.0015579274169041923    -0.033609946240375166
0                         0                        202.84004451515509       0.999795463640299        3.5008150811677297E-4    0.0010130029547639197    -0.04057089487952226
0                         0                        203.19501119206993       0.9998088390085522       4.1538462355106276E-4    0.001465520492551775     -0.03479036646225353
0                         0                        202.79360750739392       0.9997935620912022       3.4153850526763563E-4    9.538042698480353E-4     -0.04132710795658312
0                         0                        201.88502501450893       0.9997492913111904       1.7438685008652755E-4    -2.044720958400137E-4    -0.056123107866059396
0                         0                        201.33676652595176       0.9997160738522344       7.352389648218605E-5     -9.034013120832185E-4    -0.06505133684968456
0                         0                        201.15754550003368       0.9997041537510744       4.055265700486643E-5     -0.001131875314484887    -0.06796989878989024
0                         0                        201.30718451207449       0.9997141423773475       6.808170196848096E-5     -9.411129648722039E-4    -0.0655330712856177
0                         0                        200.50255241125316       0.9996561407375755       -7.994622970386445E-5    -0.0019668716087721805   -0.07863626949189495
0                         0                        199.1200798079974        0.999531866334801        -0.0030876119064053853   0.00519553541107598      -0.119336360968191
0                         0                        194.08845341184633       0.9985520848604517       -0.006274613791561023    -7.105920661007731E-4    -0.30371544432165365
0                         0                        194.32661499978246       0.9986231895718626       -0.0050266135246488375   -2.425438922333602E-4    -0.2933977343968479
0                         0                        195.03305371827594       0.9988196469695176       -0.0013247751336233904   0.0011457881012209333    -0.2627931778850261
0                         0                        196.60426660992186       0.9991790758906811       0.006908601733073283     0.004233621580074734     -0.19472460735531172
0                         0                        196.97825871532498       0.9992488716088178       0.008868373044563782     0.004968611313159338     -0.1785224057697974
0                         0                        197.07656676313667       0.9992662124543925       0.009383521062190425     0.0051618116635934784    -0.1742634741369784
0                         0                        195.64046311830649       0.9989712782158223       0.0018581356796509851    0.002339502263410123     -0.236478800115961
0                         0                        197.3802714631519        0.9993171391404773       0.010974976468688169     0.005758668744773344     -0.16110628525257198
0                         0                        193.90065477346104       0.9984942835608357       0.007813144809745154     -0.0010796978774578747   -0.3523557842606806
0                         0                        193.6547303197171        0.9984053861711518       0.006201938635115312     -0.005780704497738043    -0.3706092428519696
0                         0                        193.7694590878021        0.9984474172202841       0.00695359914192295      -0.0035875891318255526   -0.36209363252714866
0                         0                        193.56648836652704       0.9983719947611011       0.0046881194273282745    -0.006357852086807725    -0.3823503787669722
0                         0                        191.1784228252027        0.9971746813351093       -0.027761176821769595    -0.020465649149834064    -0.651616358045473
0                         0                        191.21301600022113       0.997197147525499        -0.027404660096237876    -0.019902262228654877    -0.6472635729003784
0                         0                        192.3724555958648        0.9978630353343105       -0.015455493600171621    -0.0010195460882229668   -0.5013737710599919
0                         0                        192.44164194590178       0.9978974224022173       -0.014742460149278713    1.0722775446225796E-4    -0.4926682007699199
0                         0                        191.3816679887911        0.9973045203222701       -0.025666535316901218    -0.01715558388610816     -0.6260424542800394
0                         0                        192.7789459230417        0.9980564433780376       -0.011266210590463288    0.005600584439211076     -0.4502259635287267
0                         0                        191.4292749597769        0.997334181717607        -0.02517589861218994     -0.016380253353247554    -0.6200521710521691
0                         0                        192.87415986501333       0.9980987408083231       -0.010284937181083365    0.007151245504804393     -0.4382453970733522
0                         0                        189.98439005454043       0.9963069327634979       -0.054153545494131095    -0.043291946935823944    -0.7858533461644015
0                         0                        186.35217656918624       0.9916286271419614       -0.00875622084023231     -0.04400286462300507     -1.9072050293818235
0                         0                        186.49718663694938       0.9919013821974099       -0.014999030870162855    -0.05236452027322258     -1.854672468587124
0                         0                        186.35010497818232       0.9916246754158448       -0.008667037038684988    -0.043883411326422817    -1.9079555012768004
0                         0                        185.7444342828554        0.9904026359614194       0.01740761522472134      -0.008958872154796182    -2.1273708364635757
0                         0                        186.52052802952656       0.9919445741499653       0.007570073534850508     0.012619913109062963     -1.7156678690919875
0                         0                        185.64043671843106       0.99017943552022         0.017561614750604804     -0.008723567619226102    -2.0916571553198224
0                         0                        186.5268393500642        0.9919553970328623       0.007504805425995187     0.01257887426162796      -1.7140051550497049
0                         0                        187.09068938350032       0.9928799600656513       0.0016737871553118566    0.00891248537080358      -1.5654591633423962
0                         0                        187.17766970705804       0.9930151276366161       7.742858238302119E-4     0.008346902905365994     -1.5425442433181047
0                         0                        187.6751487045312        0.9937499110579762       -0.004370360716132282    0.005112086266966465     -1.4114836657687162
0                         0                        188.25561470230232       0.994524845898351        -0.010373211896180123    0.0013376534221922753    -1.2585602070860489
0                         0                        188.82976937953583       0.9952040305958207       -0.016310794967168363    -0.002395740574794303    -1.107299462445532
0                         0                        188.06318652757543       0.9942777858721001       -0.008383228502975015    0.0025889019462379537    -1.3092553074713305
0                         0                        188.02282720446186       0.9942247306509862       -0.007965855200847471    0.002851335155571455     -1.3198879497007727
0                         0                        184.81004888308175       0.9882014797602408       -0.003201179216798522    -0.020739704476237963    -2.6722752525948117
0                         0                        185.14023626295065       0.9890457159195859       0.0050547371720313095    -0.015961724144491818    -2.44140389335454
0                         0                        185.304568804576         0.9894374768364949       0.009163663818881673     -0.01358374818408814     -2.326500418644187
0                         0                        184.4134199796996        0.9870865799779682       0.02697658543766579      -0.09707282362382585     -3.004764381497381
0                         0                        185.32772123495232       0.989491153574085        0.009742560957334945     -0.013248720670416603    -2.310311934781282
0                         0                        183.86260328043903       0.9853318304063562       -0.01920034544539817     -0.07481869499372351     -3.366682141339993
0                         0                        183.8659307157364        0.98534302918594         -0.018921394662100965    -0.0749531302298152      -3.3644958279431307
0                         0                        184.07790316626603       0.9860414480722544       -0.0011509871737871435   -0.08351725362429363     -3.225217925608291
0                         0                        184.35455731225747       0.9869085732420722       0.02204191782546161      -0.09469465067706295     -3.0434404869376266
0                         0                        184.35602225957217       0.9869130310169962       0.02216472959030824      -0.09475383756446121     -3.0424779336035925
0                         0                        183.72297808111946       0.9848496499434876       -0.030057506174472337    -0.07694979513797762     -3.4928816712069874
0                         0                        183.3432380022832        0.9834824779052037       -0.06660883636527615     0.005182684209257715     -3.516065933636913
0                         0                        183.4594620192514        0.9839095795668183       -0.007551499516949889    -0.04559685330161756     -3.6419424454379907
0                         0                        182.5117254352166        0.9801350602196821       0.01001672673285725      0.024967023465809035     -4.535328159732941
0                         0                        182.92101326164817       0.9818886445383961       -0.027699973424788027    0.015228759087733579     -4.0336260356695455
0                         0                        181.68021286815002       0.9759401131840258       0.08664228983107591      0.0447513627226499       -5.554590385829094
0                         0                        181.88485678136587       0.9770511587254087       0.06778393975196195      0.03988223053391238      -5.303739323797188
0                         0                        182.93251812391765       0.9819349697262694       -0.02876016972818718     0.014955021675714164     -4.019523456836531
0                         0                        183.02076148288288       0.982284893419939        -0.03689197354937335     0.012855430376401245     -3.911355371278269
0                         0                        181.9464686715862        0.9773756055600694       0.062106279583588275     0.03841628691889554      -5.228215904347898
0                         0                        182.19598166727513       0.9786419564396505       0.03911315289823847      0.0324795759764811       -4.922364638235315
0                         0                        180.84870030108345       0.9708976367982346       -0.23059195247103048     0.3135502065157567       -6.880828117042398
0                         0                        176.46732105211717       0.922746041043789        0.06268048682557037      0.4166605356961668       -16.75019602259991
0                         0                        176.5587239335567        0.924290483975853        0.10069181855696208      0.4982600487238358       -16.75865674288667
0                         0                        176.64423699975293       0.925712492863127        0.1259262232669478       0.46786773742837795      -16.49962647691237
0                         0                        176.6564118356204        0.9259131486084318       0.12951894598422697      0.4635406630044514       -16.46274730612302
0                         0                        176.70553198536294       0.9267181468943303       0.11874215069997263      0.5866570395529038       -16.027131315901258
0                         0                        176.73311703161266       0.9271594416911716       0.14005515328989304      0.5743542276552489       -15.968087604264987
0                         0                        177.12756236854003       0.9332914681325399       0.44481500075949043      0.3984333051313911       -15.123807101017526
0                         0                        177.21446276652753       0.9345976510887638       0.5119567554119158       0.35967610165999986      -14.93780335125404
0                         0                        177.32221122083956       0.9361947514354566       0.6024071814767709       0.21849904250746022      -14.740505413098631
0                         0                        177.33142451972265       0.9363304469408213       0.6068263871435597       0.22047201884561218      -14.715937297934019
0                         0                        177.33369513727772       0.9363638543323078       0.6079155004019476       0.22095825887356568      -14.70988248583059
0                         0                        179.67556247935565       0.9623277156621117       0.1382892098306261       -0.12403576340352096     -8.567272408606474
0                         0                        179.67703191314817       0.9623403023786392       0.13855453901658876      -0.12396639451016256     -8.564110565847175
0                         0                        178.5024246576278        0.9507964542150719       -0.0735391179349989      -0.1794171440706691      -11.091562612255103
0                         0                        178.50536352521294       0.9508290415566635       -0.07300845956342528     -0.17927840628432534     -11.085238926736054
0                         0                        179.1123457169171        0.9571612037970044       0.036591640502138034     -0.1506240476962475      -9.779169706283177
0                         0                        177.37599113275073       0.9369374245005435       -0.27693425659194304     -0.23259371265632467     -13.515357207608474
0                         0                        179.10911662792014       0.9571296147695817       0.036008578128949864     -0.15077648622762396     -9.78611787347279
0                         0                        177.36953295475675       0.9368500950455441       -0.27810038133841886     -0.23289858971961053     -13.529253541987885
0                         0                        179.10773489521588       0.9571160909164307       0.03575908474237366      -0.15084171493609944     -9.789091006095987
0                         0                        176.2711452409197        0.9193765910258433       -0.021609777330752422    0.4261754621629734       -17.60113401527184
0                         0                        176.40673166923028       0.9217231951255197       0.03664723095471345      0.41959924419074923      -17.01301031930771
0                         0                        176.20408429626272       0.9181864888223905       -0.05529588771146976     0.8526230558048269       -18.197958624989525
0                         0                        176.14653328186887       0.9171311373456256       -0.0920628924973883      0.8316806508718457       -18.477380215847177
0                         0                        175.36085571239136       0.9011153433059232       -0.5940003693861815      0.5457781697417659       -22.292000664795978
0                         0                        171.2171608281808        0.7617760525353998       0.6517252965807643       -1.4404456074019834      -49.75192816224727
0                         0                        171.71367251808033       0.7849388551554147       0.7608245194014103       0.24396220081994713      -44.61520323287908
0                         0                        173.76164593548148       0.8603414478184798       0.4047878360970927       0.5457657264271383       -30.460669852879775
0                         0                        174.24530645009696       0.8743478949422696       0.6374428647061734       0.5167355513081375       -27.457835795347805
0                         0                        173.68160673901215       0.8578835134228695       0.36628661265289963      0.5505698231430376       -30.95759779682551
0                         0                        173.58786937496018       0.8549543534628756       0.32119616500154535      0.5561961085465086       -31.53957160021181
0                         0                        172.73535914101177       0.8258104377930531       -0.08888650016389477     0.6073653080869033       -36.83243030489667
0                         0                        172.38165454409003       0.8123942710647379       -0.25902888439665617     0.6285952949863436       -39.028425590529395
0                         0                        172.65122810801617       0.8226897152038537       -0.1293560181358444      0.6124150042000345       -37.35476265070621
0                         0                        171.8148830375291        0.7892768842347118       -0.5316627610293665      0.6626139415175203       -42.54725901048093
0                         0                        171.7855705725316        0.7880270519340158       -0.5457629246287183      0.6643733284558735       -42.729247131373256
0                         0                        170.61984205686622       0.7304897533238913       -0.038131804972906025    -3.2812953132913094      -53.14390029182535
0                         0                        168.67097314668933       0.606316694043912        2.848741276296632        -0.19441841292299955     -72.78402870927499
0                         0                        168.6990924975118        0.6083588256080297       2.8715443017583766       -0.24681924063129657     -72.46339019529279
0                         0                        168.70703476299755       0.6089339894499546       2.8779849796829815       -0.2616197702724463      -72.37282636189994
0                         0                        168.7341096399358        0.6108892954227121       2.8999410024978456       -0.3120742053913972      -72.06409774428215
0                         0                        168.7364916438045        0.6110609200329998       2.9018726578622562       -0.31651310496310714     -72.03693629999498
0                         0                        168.77377157500018       0.6137385283147159       -2.5183356323033266      5.050369510135417        -74.28750557869252
0                         0                        168.64872931272927       0.6046948772164155       2.8307029255764995       -0.15296669811384334     -73.03767005082813
0                         0                        168.20999183289433       0.5710669232792391       -0.2964988691526571      0.9203135669947642       -78.78117513817207
0                         0                        169.6889397378971        0.6764180194047735       -0.7908761462108913      -3.865393566723384       -63.02668563817173
0                         0                        169.84310105004283       0.6860081434078684       -0.6662185392946895      -3.7686644563361824      -61.39005510712477