% Model:              AluminaWithRodsOriginalRydberg.mph
% Version:            COMSOL 5.5.0.292
% Date:               Mar 10 2026, 10:25
% Dimension:          3
% Nodes:              662
% Expressions:        4
% Description:        Electric potential, Electric field, x component, Electric field, y component, Electric field, z component
% Length unit:        mm
% x                       y                        z                        V (V) @ Length=0.174     es.Ex (V/m) @ Length=0.174 es.Ey (V/m) @ Length=0.174 es.Ez (V/m) @ Length=0.174
0                         0                        211.863615046031         0.9999213086520191       -7.4520238712239E-5      -2.53491210600032E-5     -0.0038679787716091596
0                         0                        211.8733642771398        0.9999213463180355       5.104275084022447E-5     2.5706730548336054E-4    -0.003599909910775523
0                         0                        212.91896004752653       0.9999246156719926       1.4993177784106138E-4    -1.0376026393998927E-4   -0.002652125200285127
0                         0                        212.92772016589308       0.9999246388699131       1.491047109993815E-4     -1.035357071970111E-4    -0.0026441321193289014
0                         0                        213.98919296968438       0.9999269315100964       4.888815633563581E-5     -7.632589821682245E-5    -0.0016756020746235833
0                         0                        214.0141041054876        0.9999269729681332       4.653622773886923E-5     -7.568732576501702E-5    -0.0016528721625590492
0                         0                        214.36611296333712       0.999927498263459        1.3302107269907992E-5    -6.666392606291538E-5    -0.0013316852668410206
0                         0                        214.4046268649158        0.9999275488751339       9.665904180167217E-6     -6.56766601707659E-5     -0.0012965436496514826
0                         0                        214.44012671592876       0.9999275943272941       6.314266038032201E-6     -6.476665662091818E-5    -0.0012641521722329685
0                         0                        213.70700827430628       0.9999264223528643       7.552998636484176E-5     -8.355942462401345E-5    -0.0019330786248792364
0                         0                        213.71383588014766       0.9999264355298958       7.488537320998745E-5     -8.338440601374231E-5    -0.0019268488454864396
0                         0                        212.72126871516596       0.9999240735399043       1.6859635802290995E-4    -1.0882788612320837E-4   -0.0028325066422922873
0                         0                        212.33847853206674       0.9999229224350303       4.273867216397775E-5     1.9956687370381587E-4    -0.003177422658538376
0                         0                        215                      0.9999281590865002       -4.654490412292489E-5    -5.041485684387226E-5    -7.533014987473052E-4
0                         0                        211.84779323665217       0.9999212463302632       -6.418385613642386E-4    2.963255566328371E-4     -0.003376782147228141
0                         0                        211.82866138487066       0.9999211812991373       -6.168657891407747E-4    -2.6633213241211706E-4   -0.0031094842946544077
0                         0                        211.79896000194145       0.9999210877578879       4.6226318679032374E-4    1.0537899913742876E-4    -0.003542377833511523
0                         0                        210.03730013409898       0.9999113840361776       1.4875433503647173E-4    -6.318753040090996E-5    -0.0074741888573548465
0                         0                        210.17341635468728       0.9999123807188111       1.729778758559064E-4     -5.01630871241332E-5     -0.007170393972565137
0                         0                        210.0356100231051        0.9999113714007813       1.4845355903503332E-4    -6.334925059547913E-5    -0.007477960979951348
0                         0                        208.8291644585617        0.9999007253860832       -6.624813828182141E-5    -1.787894358571407E-4    -0.010170601061464168
0                         0                        209.5741665976118        0.9999076831278528       6.633407530642899E-5     -1.0750301599671275E-4   -0.008507846703190936
0                         0                        208.4382739648839        0.9998965792844435       -2.0837642034265969E-4   -2.651610511321678E-4    -0.0107888953665487
0                         0                        208.5148517935914        0.9998974183909786       -1.2218390926932443E-4   -2.0886481902948617E-4   -0.01087210878360878
0                         0                        208.51614737925263       0.9998974324748537       -1.2195334406328584E-4   -2.087408491036058E-4    -0.010869217193718583
0                         0                        208.82625412612808       0.9999006957768011       -6.676606748712288E-5    -1.790679144946239E-4    -0.010177096570183508
0                         0                        210.71005923033962       0.9999159072852243       2.684800183629932E-4     1.1862275357543695E-6    -0.005972672202901208
0                         0                        211.5418174136677        0.9999201030731969       4.165015283064122E-4     8.077400315187333E-5     -0.004116288882954677
0                         0                        206.6157896111661        0.9998672163029976       2.682326024157078E-4     2.082135874843516E-4     -0.02143413182830045
0                         0                        207.0159180707625        0.9998753251243397       1.6359256320797044E-4    1.042836608178277E-4     -0.01909695836576475
0                         0                        207.52703178802503       0.9998843228908322       2.9928090951258923E-5    -2.8473732072598068E-5   -0.01611151359743701
0                         0                        208.12030682920573       0.9998928534957627       -1.252228912065334E-4    -1.825718219450323E-4    -0.012646159786783073
0                         0                        208.12763299501364       0.9998929459868731       -1.271388017478614E-4    -1.84474730644979E-4     -0.012603367228592788
0                         0                        208.32728870721783       0.9998953459018327       -1.793519872776983E-4    -2.3633358472352484E-4   -0.01143716667243666
0                         0                        207.16770240746405       0.9998781564589374       1.2389851374194905E-4    6.485898464347883E-5     -0.01821037728083752
0                         0                        207.15383528764409       0.999877903371845        1.2752498881596352E-4    6.846084990286272E-5     -0.018291375929379683
0                         0                        205.70454743430722       0.9998452595209394       -9.925376975958855E-4    7.289646649724091E-4     -0.0256274341103655
0                         0                        202.82799800420185       0.9997277828442163       -3.5095528373574325E-4   0.0012535050723343488    -0.05584362754675354
0                         0                        202.88064190206194       0.9997307082148241       -3.695778864027943E-4    0.0011979996703175289    -0.05529444264763228
0                         0                        204.26627271925446       0.9997973112521453       -8.597401491670098E-4    -2.629482902207769E-4    -0.04083944308197118
0                         0                        204.2925946681846        0.9997983826119764       -8.690514504507973E-4    -2.9070099129313576E-4   -0.04056485063237858
0                         0                        203.4176531146348        0.9997588977447118       -5.595438049965651E-4    6.317987558261962E-4     -0.049692303356192014
0                         0                        204.56110027447096       0.999808898450338        -9.64034409719261E-4     -5.738014488585463E-4    -0.03776378098654476
0                         0                        203.45105176034087       0.999760551582017        -5.713584638442626E-4    5.96584698399738E-4      -0.04934388630081443
0                         0                        204.57779959732406       0.9998095276253268       -9.699417391857423E-4    -5.914084774332196E-4    -0.03758957245892702
0                         0                        202.32430392335775       0.9996983313910113       1.1368782219278728E-4    0.0017817198734633166    -0.06238892535827745
0                         0                        201.38725607324264       0.999631005362427        0.002925269438549094     0.0020548574362493355    -0.08139989550844007
0                         0                        201.85707205012213       0.9996669949092212       0.0014925563279746257    0.0018186937637381106    -0.07180709857078682
0                         0                        201.3825164642404        0.9996306193294137       0.0014218520844786475    0.0015929585707255       -0.08047082273692752
0                         0                        202.22413539032158       0.9996919771344724       3.731894143328418E-4     0.0016341810380993138    -0.0643123255977116
0                         0                        201.37197251930823       0.9996297699248315       0.001399002372085345     0.0015902338961666374    -0.08064621415908846
0                         0                        200.7269217336043        0.9995742883282878       1.1171385976282977E-6    0.0014235454984259377    -0.09137619949575537
0                         0                        200.95537282781657       0.9995947292491103       4.96191973447857E-4      0.001482579837755793     -0.0875760694201233
0                         0                        201.36276541669062       0.9996290267018099       0.0013790497218293396    0.0015878546770764501    -0.08079936810938193
0                         0                        200.3625535415821        0.9995398895263347       -7.885027280956081E-4    0.0013293886485143958    -0.0974372189447763
0                         0                        200.23921089645404       0.9995277448296176       -0.001055797747500975    0.0012975155178764908    -0.0994889407672872
0                         0                        199.96674844060811       0.9994996059407427       -0.0011188918489750677   9.628290700456898E-4     -0.10800635499142186
0                         0                        200.01578909477195       0.9995048608907259       -0.0011133118993083002   9.550017667099286E-4     -0.10630359141756474
0                         0                        198.39879454869032       0.9992875759473049       -0.0012972969761904096   0.0012130877834408693    -0.16244801810118759
0                         0                        198.59697219391268       0.9993190876809273       -0.0012747479023005326   0.001181456953547766     -0.15556699905300064
0                         0                        199.91249705204436       0.999493695349668        -0.0011250646876186376   9.714880508046864E-4     -0.109890042920463
0                         0                        199.10308748322677       0.9993933755188319       -0.0012171610287765589   0.0011006766694423575    -0.1379939325122308
0                         0                        198.06464822091388       0.99923135614715         -0.0013353168554033346   0.0012664203657006823    -0.17405006960293434
0                         0                        197.96696406999956       0.9992141885543965       -0.001346431565906414    0.0012820115831271295    -0.17744180686165834
0                         0                        196.83084065677232       0.9989901839363104       -0.0132359063925378      0.014809727551948981     -0.21807210851650893
0                         0                        193.11079310915707       0.9976468563876207       -0.011727980152699047    0.007261488320409626     -0.5489720376866671
0                         0                        193.15886979367457       0.997673126729119        -0.012286493850723446    0.006155928263439137     -0.5438795914195396
0                         0                        193.41792768048748       0.9978104687144347       0.00797284143121857      0.020028150484108664     -0.47470955549264815
0                         0                        192.97850898361435       0.9975733093200503       -0.010191216607609022    0.010303462757974557     -0.5629840230827199
0                         0                        193.82785324374186       0.9979987104941973       0.007657198095927242     0.015718595571371452     -0.4437097705346247
0                         0                        194.26153792322094       0.99818402894975         0.007323260203648374     0.011159260637356283     -0.4109132508521398
0                         0                        195.3293469502571        0.9985796925687142       0.00650104555589337      -6.663511175020176E-5    -0.33016237024873973
0                         0                        195.5461892899966        0.9986495078310573       0.006334076609675776     -0.002346302578871473    -0.3137641104075648
0                         0                        193.43559366114138       0.9978188431237913       0.007959238597727847     0.019842427707430943     -0.47337360172380727
0                         0                        195.0622134128037        0.9984887968872025       0.006706738804439283     0.0027417446328001915    -0.35036379938262385
0                         0                        194.55556533924909       0.9983015798284005       0.007096858626042035     0.008068145057620768     -0.3886780269829764
0                         0                        195.69320299801072       0.9986948182356918       0.006220875820943661     -0.0038918603688387066   -0.3026464984728676
0                         0                        194.62703208930066       0.9983291642618057       0.007041829114967868     0.00731681381265048      -0.38327349971777736
0                         0                        191.97773048859264       0.9969784552622917       -0.003198841522774387    0.0030422185873817398    -0.6887626014841857
0                         0                        191.9785350522195        0.9969790093545873       -0.0031948014488278886   0.003025275652646542     -0.6886108642213387
0                         0                        190.97695199357102       0.9961947117205694       -0.008224198202057664    0.024117151894785138     -0.8775051503140006
0                         0                        191.31186342090717       0.9964780212404118       -0.0065424580502195795   0.017064406427039103     -0.8143422858618052
0                         0                        191.57111361231765       0.9966828018120544       -0.005240646822613826    0.011604976072277395     -0.7654488072801549
0                         0                        191.97692657126532       0.9969779014931591       -0.003202878351501681    0.0030591479120118947    -0.6889142168577891
0                         0                        192.64840894760982       0.9973979774184333       1.689351534324146E-4     -0.01108129012575887     -0.5622755092558513
0                         0                        192.66261724776658       0.9974059473611832       2.402813868727094E-4     -0.011380496173842403    -0.5595958845441089
0                         0                        189.97617349854937       0.9952220786948818       -0.06381545321332993     -0.023506212600750587    -1.0342415193246381
0                         0                        188.59298973438536       0.9934382812513309       -0.009994968298855156    0.02573142072000678      -1.5035169821972652
0                         0                        188.9132174178769        0.9939038920842064       -0.008231636154505395    0.03659421224182324      -1.404481650516903
0                         0                        188.37732038269925       0.9931068262469154       -0.011182550510113742    0.018415466086082688     -1.570216043142377
0                         0                        187.5920051543067        0.9917783466069366       -0.015506884904482376    -0.008224065861753616    -1.813086844534375
0                         0                        187.85026133720444       0.9922362740736622       -0.014084798519547803    5.365229901883595E-4     -1.7332171516554062
0                         0                        187.43327558910926       0.9914866601384157       -0.016380928465082434    -0.013608504072323058    -1.8621764015812623
0                         0                        188.99453065691756       0.9940170726293849       -0.007783885208652919    0.039352527057332054     -1.3793342818991476
0                         0                        188.01288781528586       0.9925140514467948       -0.013189296627871272    0.006053152620694391     -1.6829224144197354
0                         0                        187.03124497365408       0.9907130151471113       0.00707975416167983      0.023869004870665123     -2.136814441646433
0                         0                        186.75905043711867       0.9901134599455214       -0.006684030458401935    0.00408849796126276      -2.268528951511784
0                         0                        186.8363781326909        0.9902874333087969       -0.00277387942985996     0.009707938512864445     -2.231110200749862
0                         0                        186.96354667420408       0.990567247575455        0.0036565230247518343    0.018949337131964228     -2.1695735427078326
0                         0                        186.64841567036888       0.9898822375579645       0.09341592521169417      0.07872829532069048      -2.1326711134391907
0                         0                        184.88496100534766       0.9849208635483587       0.019046401539881685     -0.0687999533583934      -3.494209019082838
0                         0                        185.1600942968102        0.985853013983332        0.030649496441128576     -0.04578267174188255     -3.2817825740706112
0                         0                        185.7945914231759        0.9877798799417497       0.057407909909310106     0.007298505620456197     -2.7918964966429307
0                         0                        186.48641429860328       0.9895266104335942       0.08658390106531755      0.06517547815198199      -2.2577500353986952
0                         0                        184.45804888175113       0.9833587855286634       0.0010423938886816586    -0.10451484820839596     -3.8238217106847827
0                         0                        185.5465357381879        0.9870635803047124       0.04694674892648365      -0.013453499807734914    -2.9834167123426063
0                         0                        184.33402103925718       0.9828785867120191       -0.00418818660260456     -0.11489085092269136     -3.9195818185347022
0                         0                        183.12150634032645       0.9775584791674429       0.10090608506598642      6.897637086069608E-4     -5.226489545822631
0                         0                        180.19959772949395       0.9563450171341324       0.0522956913882382       -0.04689691499379656     -9.812117541087545
0                         0                        180.68308949589587       0.9608849267449976       0.06575125905104784      -0.07096680731041971     -8.967559493128562
0                         0                        179.47695174607813       0.9487982281864666       0.032184465920021665     -0.010921098625239267    -11.07442751931299
0                         0                        179.02315935339738       0.9435928812587678       0.019555431324398853     0.011670256150530633     -11.867107031092871
0                         0                        180.85127266689057       0.9623684148689999       0.07043179384881881      -0.07933954723405634     -8.673778997853873
0                         0                        181.1640976970237        0.9649963201019348       0.07913770913447138      -0.09491305915824455     -8.127339709408318
0                         0                        181.66055203491018       0.9688159103259109       0.09295402494210236      -0.11962827311528201     -7.260138785540562
0                         0                        178.99375725466922       0.9432432083712124       0.018737171415239118     0.013133994314109998     -11.918466290615754
0                         0                        178.73864342407768       0.9401457995921064       0.011637357834629825     0.02583444312733718      -12.364096296634614
0                         0                        174.44678171387176       0.8469082698182698       2.6502242661244964       0.8631953837069233       -33.412266146426816
0                         0                        174.67686646345422       0.853987775809721        -0.7099318217289863      1.3842693430038864       -30.248073431317835
0                         0                        178.16287619577608       0.9326760770567459       -0.10009316908617905     0.071746112399385        -14.34243712713642
0                         0                        178.41878062370796       0.9361906702166721       -0.1218099856614927      0.11591150169054032      -13.125576524129315
0                         0                        176.8681667061293        0.910121334558711        0.009779757819593726     -0.15170195019021193     -20.498958071392792
0                         0                        177.27171589324482       0.9180064807705706       -0.024466635439621243    -0.08205521882571354     -18.58002641731796
0                         0                        177.9094419820033        0.9288885041700699       -0.07858598228640012     0.02800704621170169      -15.547551523501056
0                         0                        177.9453907714468        0.9294443472576415       -0.08163670427955871     0.03421128540023943      -15.376610106218308
0                         0                        175.80478836241204       0.8856346950417773       0.10002123049470413      -0.33522561523128047     -25.555467734073886
0                         0                        176.0460895542905        0.8916628229322233       0.07954368828981728      -0.29358053248719074     -24.40804751853284
0                         0                        176.64524124105787       0.9054334397175683       0.028697880784683605     -0.19017564924813257     -21.558999189261385
0                         0                        178.45097593126425       0.9366107877500514       -0.12454217593431949     0.12146794439493291      -12.972483427290172
0                         0                        175.26009897391688       0.8710095104072512       0.14624520417135045      -0.429231096418377       -28.145540376006466
0                         0                        175.05290191597413       0.8651372584304744       -0.6069009093384636      0.7431211655804315       -28.806309718785997
0                         0                        174.34574338830174       0.8435096019093075       2.5412832464732276       0.9617267892542287       -33.86256030757886
0                         0                        174.20549984905395       0.838691458413062        2.0552752992603907       -0.02007066193144169     -32.562956760985855
0                         0                        170.3841552669081        0.6470277230780778       -1.1293585853509729      -0.4734319097982782      -67.75200357601067
0                         0                        170.6939946149922        0.6672039526880129       -0.6531850539030941      -0.5772389643245663      -63.79860564768683
0                         0                        171.80428204312585       0.7327879272050974       -0.7468531407742134      -0.5074027438088375      -54.34012645942212
0                         0                        172.38233160775033       0.7627759477228535       -0.795619609224886       -0.4710438732666553      -49.41575315009172
0                         0                        171.46123910628395       0.7136456823990776       -0.7179127287742357      -0.5289798792214335      -57.26249088198838
0                         0                        171.60762179724935       0.7219366483721862       -0.7302621315201279      -0.5197725211744046      -56.01546457066119
0                         0                        171.66997691712163       0.7254129378625515       -0.7355226475245047      -0.5158504323608764      -55.48426464112089
0                         0                        172.73327097640868       0.7795932908530561       -0.825226194363978       -0.44897005840015325     -46.426119447422934
0                         0                        172.9557985673352        0.78971346052154         -0.843999471616371       -0.4349732450372201      -44.53041880787663
0                         0                        170.70661307452346       0.6680083145946831       -0.654249595330441       -0.5764452729794094      -63.691109666159576
0                         0                        173.91742116906525       0.8285961060118099       -0.925125626082206       -0.37448792712272194     -36.338407320618785
0                         0                        174.0705124664           0.8342032586466805       1.7822160866412347       0.012058944610252809     -33.93510666005348
0                         0                        174.0822770560645        0.8346017878038303       1.806014085590565        0.009258744846107447     -33.81551933119859
0                         0                        168.99621993268357       0.5442711408646881       -0.235496277402234       -1.0308209342678154      -80.3191344367741
0                         0                        169.2157183868308        0.5616829445260003       -0.3768583351127006      -0.9426712732477718      -78.3316745537496
0                         0                        168.7092450221828        0.520848722500763        -0.050677828373451916    -1.146068857904389       -82.9175633153312
0                         0                        168.660084760455         0.5167615321781485       -0.019017488065330213    -1.1658114133762112      -83.36268739787943
0                         0                        169.5221200136816        0.5852588675734725       -0.5741880367081933      -0.8196216615873055      -75.55734548694454
0                         0                        169.82343385994227       0.6076143104723861       -0.7682410904737047      -0.6986152813294861      -72.82908398747523
0                         0                        170.1689405381831        0.6322368024774403       -0.9907553454312057      -0.5598612446077406      -69.70067624998781
0                         0                        168.54135547987318       0.506800120895837        -0.3038236441633817      -1.5271891916728038      -84.27282513752058
0                         0                        168.25241194016655       0.48212953696281674      -0.4799083607683947      -2.2483104096979787      -86.49122072465579
0                         0                        168.11808125338734       0.47044184167661673      -0.617599423645899       -2.0551702255772284      -87.87829676267125
0                         0                        168.02952489639674       0.4626148297322632       0.4920240413621997       -1.9062809556971274      -89.60694785162298
0                         0                        168.0000005642646        0.45996401230604494      0.4632429253786867       -1.8182897659795572      -89.96137663108148
0                         0                        167.78064201552343       0.43994139477608185      0.2494062903949441       -1.1645368007286834      -92.59469556091133
0                         0                        167.25445904199245       0.3910258269427258       -1.2031666917193498      2.613574173598839        -93.09666289529855
0                         0                        167.49232203967807       0.4131294996265937       -1.56635753390551        1.8968395131642848       -92.75546962580538
0                         0                        167.69087753845935       0.4315183328505743       0.03737083913498651      -0.9638759987906838      -93.83018244872127
0                         0                        164.81225577954845       0.15359254366466607      -0.5665393110249788      -1.6439002713634778      -101.93037163901977
0                         0                        164.87666310500092       0.16014998526019206      -0.6461407776419517      -1.5340732195742852      -101.69372079029733
0                         0                        165.17956133590047       0.19078428046176207      -1.0204948320284242      -1.017572659146115       -100.58078646310133
0                         0                        165.50134083441196       0.22295889401406926      -1.4181843778816479      -0.4688758548700074      -99.398476983717
0                         0                        165.84073768223197       0.25648280294998493      -1.8376473296792364      0.1098619660343001       -98.15143634779385
0                         0                        166.44029404671141       0.314669727718353        -0.356668637029685       2.49031304552083         -95.5180037469054
0                         0                        166.82419175532613       0.3510250867698118       -0.31799074999440435     3.625314921166037        -93.8832780822911
0                         0                        166.9220353813001        0.36019058428755574      -0.3081329555152621      3.914591716802928        -93.46663718314188
0                         0                        166.5139792408067        0.32169643031093575      -0.3492448167009048      2.708164914986943        -95.20423506533578