% Model:              AluminaWithRodsOriginalRydberg.mph
% Version:            COMSOL 5.5.0.292
% Date:               Mar 10 2026, 10:25
% Dimension:          3
% Nodes:              523
% Expressions:        4
% Description:        Electric potential, Electric field, x component, Electric field, y component, Electric field, z component
% Length unit:        mm
% x                       y                        z                        V (V) @ Length=0.168     es.Ex (V/m) @ Length=0.168 es.Ey (V/m) @ Length=0.168 es.Ez (V/m) @ Length=0.168
0                         0                        1.1122453386106963       -0.45778479969519625     -0.280321584227579       0.6249726306313192       9.28763765041577
0                         0                        1.139660231978413        -0.458038588007868       -0.28345453277921706     0.6199278441318725       9.22699301166282
0                         0                        0                        -0.4460863815015147      -0.15321521997395848     0.8296438723898021       11.748041776740026
0                         0                        0.008429343995844198     -0.44618533119763        -0.15417851757672452     0.8280927359246277       11.729395177802223
0                         0                        1.144580510221314        -0.45808396060424605     -0.2840168176068971      0.6190224328679435       9.216108836678005
0                         0                        1.150246862190104        -0.45813614680805775     -0.2846643630470851      0.6179797318978331       9.203574267836617
0                         0                        0.018655536768829667     -0.44630516258833747     -0.1553471573887748      0.8262109500447963       11.7067737596476
0                         0                        0.029602604419225114     -0.44643318488517664     -0.15659817811254584     0.8241965114564138       11.68255769014996
0                         0                        1.1009249138985229       -0.45767951794952577     -0.2790278966059532      0.6270557729942183       9.312679625155194
0                         0                        1.1068318818625185       -0.45773448905703734     -0.2797029394186836      0.6259687947655266       9.299612788326897
0                         0                        2.2708911199609814       -0.4670610501936143      -1.343119818593152       -0.5399988991579647      5.540409498439999
0                         0                        4.527815945245409        -0.47841415967003925     -0.5902986777229131      0.11717293417102326      3.254111353741491
0                         0                        4.685200264361404        -0.47890681155233833     -0.6243991505175401      0.06646054794188672      3.006383784100734
0                         0                        3.743976274572319        -0.4753799125758248      -0.4204640746609982      0.36974180725961503      4.487898161058752
0                         0                        3.9013665955403773       -0.4760667686035761      -0.4545658478774328      0.3190274871132317       4.240161144325384
0                         0                        3.399353532603195        -0.47373981112630825     -0.34579463806774413     0.48078617109626975      5.0303445419339745
0                         0                        4.217334364907658        -0.4773279507450136      -0.5230266093042246      0.21721633053718392      3.742818537197534
0                         0                        4.3896950603256          -0.47794968475116967     -0.5603720147297224      0.16167825529656454      3.471517708644077
0                         0                        3.2441127424343192       -0.47293992964246667     -0.312158603858407       0.5308078692793572       5.2746981336619605
0                         0                        5.190555987380996        -0.48022511350125574     -0.7338946147501204      -0.09637520820499645     2.2109389407331133
0                         0                        6.435845892594476        -0.48235238866421926     -0.4424008967106463      -0.1330322849118044      1.3062147751354658
0                         0                        6.539147496862067        -0.48248387753915645     -0.41577717544899073     -0.1369568044305014      1.2395128710023329
0                         0                        6.1563830068738685       -0.48196213566674034     -0.5144263219221958      -0.12241524215111999     1.486664118049812
0                         0                        6.732265373114633        -0.48271120908798953     -0.366005281348766       -0.14429352374026472     1.114816549396096
0                         0                        6.940616021744601        -0.4829294669107485      -0.3123074744934158      -0.15220894957578857     0.9802844180752146
0                         0                        7.400612568100653        -0.48331208026364864     -0.4900507660005644      -0.4634346646342564      0.6113508893055197
0                         0                        6.136533570033838        -0.4819324990181697      -0.5195420786170062      -0.12166114444982312     1.4994809106117235
0                         0                        6.1306953905750285       -0.48192373377537984     -0.5210467412376942      -0.12143934683695971     1.5032506263807472
0                         0                        8.649572818837933        -0.483774006261496       -0.45597433378868857     0.14764105874496636      0.26584634417864095
0                         0                        8.706195634858966        -0.48378365307314897     -0.22554295828788895     0.10050132957283608      0.1478173780886607
0                         0                        8.725487980263996        -0.4837786206730016      -0.218496972941864       -0.11421283876467214     -0.26760318313251474
0                         0                        8.624885084569591        -0.4837669066350969      -0.5018785855984831      0.1940621827241813       0.30930780498800914
0                         0                        8.32963345453575         -0.48359885079308357     -0.38730336047598257     -0.48636290708556373     0.0060098904618826055
0                         0                        7.657423947596994        -0.4834475952595533      -0.46164806447067974     -0.4697727714079889      0.44401508529009703
0                         0                        7.720393022290006        -0.48347426266685        -0.45468384100973225     -0.47132684864418195     0.4029850469696683
0                         0                        8.956091058811332        -0.4838159388864526      0.26008980366233914      0.02664440831574666      0.09157537905736746
0                         0                        9.01687587216817         -0.48374885893019703     0.20430809727986343      0.26763434756435345      -1.1163998426305142
0                         0                        9.025535372465322        -0.48373917563103863     -0.2789693765318617      0.36717540881650734      -1.392325637639999
0                         0                        9.596157055966803        -0.4827546911531062      -0.10836455098132092     1.0268673323996893       -2.058242423115729
0                         0                        10.336587337691684       -0.4817665536404879      -0.06391864301950623     -0.6685064347573046      -1.3949509358385015
0                         0                        10.351172583160615       -0.48174619058373197     -0.05994973204729881     -0.6720832443809144      -1.3973307297839952
0                         0                        10.91111313895939        -0.4809381896795578      0.092420292880111        -0.8094001495271002      -1.4886931375943036
0                         0                        11.558558367964832       -0.47994014433309307     0.2686019333438274       -0.9681762449144404      -1.5943331996234926
0                         0                        11.678555411150066       -0.47974765433694627     0.30125531462157773      -0.997603694714797       -1.6139124543890058
0                         0                        12.431563896577288       -0.4784861056581001      0.5061626400633599       -1.1822675732229158      -1.7367766899186137
0                         0                        11.229687346415416       -0.4804556507004278      0.1791101377728994       -0.8875256286950481      -1.540673131466928
0                         0                        10.020937843541942       -0.48219874078380265     -0.14981262014597085     -0.5910981970457101      -1.343448151282189
0                         0                        11.108021257128861       -0.4806418907429188      0.14600257864821176      -0.8576888707229458      -1.520821547667591
0                         0                        9.685753623664475        -0.4826398777653874      -0.2410223519810728      -0.508899364954118       -1.2887579934236584
0                         0                        12.438436849288891       -0.47847416502030016     0.5877495415901421       -1.1287392661454965      -1.467767104582908
0                         0                        12.679327113126806       -0.4781201317532355      0.11644736108500098      -0.8405682567205943      -2.0828468819584103
0                         0                        14.723103827454832       -0.4736822891931457      0.24709533971920195      -1.1877338480336803      -2.2599392247411103
0                         0                        14.823392811743167       -0.47345520642831385     0.25350629106477385      -1.2047694098387183      -2.2686292205994505
0                         0                        13.550781993858322       -0.47627212238000016     0.17215492338383032      -0.988597709669606       -2.1583580595622593
0                         0                        13.751359962434988       -0.4758374602832359      0.18497682607485721      -1.0226688332797131      -2.1757380512789277
0                         0                        14.257266239478707       -0.474725652152033       0.2173167739814872       -1.1086044692948924      -2.2195746050482263
0                         0                        12.847268691228455       -0.47776911321272236     0.12718298966601083      -0.8690956084900066      -2.097398944964265
0                         0                        12.79336192059653        -0.47788205131737194     0.12373701116534619      -0.8599387491467709      -2.092727947278391
0                         0                        14.010916111241237       -0.4752698153298133      0.2015688960137645       -1.0667582698838451      -2.198228476066298
0                         0                        15.89542566105135        -0.47097337018846946     0.8288996050782771       -2.976181327453162       -1.1634687417519842
0                         0                        13.856360638302814       -0.47560852865551917     0.19168897127216944      -1.0405047453293612      -2.184836313115861
0                         0                        18.286364464510726       -0.46663665459847237     0.0705188929566134       -1.5091436632665207      -1.3687154603675538
0                         0                        18.53728924943084        -0.4663167749859792      -0.03944609604930349     -1.5064736001499455      -1.2171216365855173
0                         0                        16.785572331416972       -0.46911011473575265     0.11458657691613894      -1.321050230360413       -1.9274907000170103
0                         0                        17.077360874139227       -0.46856354480762263     0.1060188046043038       -1.3576199241061886      -1.8188519290031238
0                         0                        17.675719001782596       -0.4675418713309081      0.08844924498175999      -1.4326118112929294      -1.5960711062646897
0                         0                        18.23461673723593        -0.46670798101743743     0.07203835887129628      -1.5026581497475675      -1.3879821849670009
0                         0                        18.259296087227106       -0.4666738399039066      0.0713137003582176       -1.505751198784445       -1.3787935642369131
0                         0                        16.692405262204474       -0.46929130928404633     0.11732223688585464      -1.309373654040698       -1.9621786826354892
0                         0                        17.4893848633576         -0.4678457374207138      0.09392056492143297      -1.409258658653684       -1.6654470715015162
0                         0                        17.659733201796733       -0.46756743337680895     0.08891863522316612      -1.4306083199827242      -1.6020229426457018
0                         0                        17.168506552465654       -0.4683993108462991      0.1033424986336513       -1.3690431606443099      -1.7849165510605225
0                         0                        18.81399466956782        -0.46608489185368807     -0.3477824252007089      -1.7389302814812386      -1.0916823942760843
0                         0                        18.978740649285932       -0.46591191657992925     -0.404513006229676       -1.792471713262883       -1.008220426474658
0                         0                        19.355558545150707       -0.46556796829759833     -0.5993288397328591      -1.8546752028699274      -0.9255138106071881
0                         0                        18.96279488953639        -0.4659280578277966      -0.3990220545408931      -1.7872894392594905      -1.0162987085005355
0                         0                        19.675629440739037       -0.4652807899506222      -0.6597971707954713      -1.8420443495831904      -0.8689532961143058
0                         0                        20.122868092518665       -0.46490983367595434     -0.7442902478997588      -1.8243951166390815      -0.789920654926247
0                         0                        19.48444827376307        -0.4654501468970618      -0.6236789036957582      -1.8495888695772607      -0.902737389933943
0                         0                        21.147365921213062       -0.4641933000067629      -0.9378400980494916      -1.783965693204081       -0.6088791260446271
0                         0                        21.466575830590862       -0.46400794281105584     -0.9981457701514103      -1.7713688167350483      -0.5524707585407693
0                         0                        21.11073721853978        -0.46421572100341707     -0.9309201420329103      -1.785411159742793       -0.6153518741044071
0                         0                        20.714665671241168       -0.4644733050498829      -0.856093640227833       -1.8010412019425956      -0.6853426505229727
0                         0                        20.507133552988158       -0.46461934112754444     -0.8168863239562754      -1.809230974190342       -0.7220161611232125
0                         0                        21.658708560825612       -0.4639050567647896      -1.0344438081797236      -1.7637867455107425      -0.5185185116392326
0                         0                        22.81028356866306        -0.46342511520933494     -3.2103884274986285      2.0689801601159843       -0.5517163912403351
0                         0                        25.115236204533627       -0.46234518198483154     -1.7272091220400512      0.9852961426413174       -0.10734662835614017
0                         0                        26.267712522468912       -0.4624295936204709      -0.6348952627112681      -0.28107043408098775     1.5651521601909053
0                         0                        23.96275988659834        -0.4626770225144528      -2.3782474268340295      1.4365102756422985       -0.4685272953972017
0                         0                        27.4201888404042         -0.4623701822955758      0.39544688158358277      -0.15660999020172994     0.20378095366664825
0                         0                        28.572665158339486       -0.4628992990667654      0.5603278652143882       0.44520532363452503      0.7144448926352178
0                         0                        29.72514147627476        -0.4640169439340397      -2.453322389745466       4.670204526740008        -2.1317767416620086
0                         0                        31.690878231300506       -0.4670950105030034      1.0940143910838032       1.3360398902436668       1.3460593743393687
0                         0                        31.77939760567658        -0.4672132866871446      1.1008888010212683       1.3460657608524125       1.3262637182041175
0                         0                        30.70800985378763        -0.465663994264116       1.0176848848125104       1.2247183716727577       1.5658589895590467
0                         0                        31.609672436556192       -0.4669849653284652      1.0877079533542293       1.3268423694010032       1.3642194890064019
0                         0                        31.627213833711885       -0.46700886123866586     1.0890702173305495       1.3288291409911555       1.3602966927975402
0                         0                        31.645084853078924       -0.46703313541635527     1.0904580797504586       1.3308532462119569       1.3563001829184955
0                         0                        30.67617765499332        -0.46561403622818864     1.015212797936016        1.2211129970464825       1.5729776487881963
0                         0                        31.6475116615144         -0.46703642623855457     1.0906465455653152       1.3311281110937312       1.3557574738717264
0                         0                        32.57825001243045        -0.46820141896547196     1.1629276367252004       1.4365452849359492       1.147615736806955
0                         0                        33.71551423490924        -0.47013852620799557     0.5738622747652862       1.136800806295855        1.427942254789194
0                         0                        33.84153240375119        -0.4703146277613488      0.535730545636758        1.0877628664058836       1.366917486017222
0                         0                        33.90327002618607        -0.47039809512220904     0.5170494116594639       1.0637386654059133       1.33702081184515
0                         0                        33.9067248851627         -0.47040271145052426     0.5160040088584417       1.0623942627028358       1.3353477834865046
0                         0                        33.93216646958247        -0.47043652809140923     0.5083056617503328       1.0524940800629068       1.323027601240696
0                         0                        35.240765893818825       -0.47175321534410297     0.11233768950344114      0.5432736994188687       0.6893334441754178
0                         0                        35.286082926734466       -0.4717839566506442      0.09862524756017876      0.52563930624747         0.6673885017871157
0                         0                        33.957138796421326       -0.4704694161746279      0.5007493068890607       1.0427765014496497       1.3109346587305524
0                         0                        33.61366525276871        -0.46999058010870326     0.6046806705146858       1.1764336966160842       1.4772630046612898
0                         0                        36.63999938388646        -0.4722437046431762      -2.1433724103902136      3.7378666114795465       2.24996117087332
0                         0                        38.94495201975703        -0.4718006313836963      -0.8614702869978288      1.1559408279429704       -0.16917036714568406
0                         0                        40.097428337692314       -0.47161895243581864     -0.20695397782862202     0.622495899759004        1.5025549707042103
0                         0                        37.79247570182174        -0.4720088821194825      -0.8974623216558371      1.496491413307595        -0.19222662218079217
0                         0                        42.40238097356289        -0.47078402867755803     0.34216549610226643      -0.7208085529136873      -0.20045087364742642
0                         0                        43.554857291498166       -0.47064623728994115     0.16995571031300472      -1.5212920151979148      0.8147469670781078
0                         0                        41.249904655627596       -0.4711082670595172      0.7215183936615546       0.07659324951776625      -0.3622303318806246
0                         0                        45.85980992736873        -0.47169218280503206     -1.2100231830457346      -0.1650539977261598      0.5176840815294312
0                         0                        47.01228624530402        -0.4723256243924615      -1.779572625489358       -0.41807714458868617     0.5506771685747083
0                         0                        44.70733360943345        -0.471132387104192       0.05775060421378697      -1.9570506120701623      0.45378178224307636
0                         0                        49.31723888117458        -0.4751448672703409      -2.6549834645326484      0.3700623047266163       1.6736700363615709
0                         0                        50.469715199109864       -0.47733335417228767     -2.2414657012427384      1.3804209535551486       3.9611648684810348
0                         0                        48.1647625632393         -0.4734756240103988      -2.1240250272254         -0.9121268363351334      1.223123995697392
0                         0                        53.47984943168384        -0.4810020880749411      -0.8252481221222183      0.21947886774725944      0.5369133257547958
0                         0                        53.80710229077122        -0.4811535345686079      -0.4963498207254844      0.13720526899147245      0.6907066861105875
0                         0                        51.97478231539685        -0.47968085930383286     -1.5290493399322145      0.30855735435460474      1.218794119861002
0                         0                        52.601533604464294       -0.4803557558553684      -1.2359671805147556      0.2714626256842525       0.9348402269936216
0                         0                        52.70713290484183        -0.48045194826339765     -1.1865867140881434      0.26521265466128696      0.886997752715061
0                         0                        52.796250429317446       -0.4805291962341783      -1.1449134746855272      0.25993816947413606      0.8466224580185404
0                         0                        52.6946399268841         -0.4804408316647231      -1.1924286948248444      0.2659520606037411       0.8926577805226827
0                         0                        51.65212006183123        -0.47926401636748683     -1.6799330344489078      0.32765435336678905      1.3649784270646705
0                         0                        51.58217756299698        -0.47916743819928315     -1.7126396262837034      0.3317939507829024       1.3966663472449738
0                         0                        53.45973784259431        -0.48099119826946524     -0.8346527265682369      0.2206691867038053       0.5460250166493239
0                         0                        54.15789694559163        -0.4813737447658859      -0.3601958860113683      0.06467659988418362      0.5647867728230125
0                         0                        55.09939673352933        -0.4817463980869429      0.0052284410094429745    -0.12998351151015086     0.22682959466099106
0                         0                        55.77123502615661        -0.4818177804602762      0.26598904775178767      -0.26888966800371605     -0.014330920154264959
0                         0                        54.337424708360935       -0.4814693550535715      -0.29051577271550144     0.027558275752008754     0.500344170833479
0                         0                        54.999592562754685       -0.48172197178891185     -0.03350855331218838     -0.10934846596954628     0.26265491969660815
0                         0                        55.86099890754126        -0.48181504790673885     0.3008291043996252       -0.2874488300697777      -0.04655222114894286
0                         0                        55.8907811741228         -0.4818135022819867      0.31238849598112495      -0.2936064728060188      -0.05724275013486135
0                         0                        56.19208283473812        -0.4817799614418615      0.4293327141012355       -0.35590220093060765     -0.16539684671738542
0                         0                        54.29128462498571        -0.48144588703958574     -0.3084241239780994      0.03709798450673496      0.5169064394366885
0                         0                        57.38457310672158        -0.4813275035274572      0.7901923226057761       -5.164829921487296       4.576720230861412
0                         0                        58.380455042297065       -0.48060302604932126     -1.0008847661655125      -0.6045635843932047      -0.7469893966406289
0                         0                        58.4224107365604         -0.4805716510946507      -0.9441569612865237      -0.607107433222076       -0.7486337945106598
0                         0                        59.37633697787253        -0.47983967703509556     0.3456355838305569       -0.6649456884196709      -0.7860216701470417
0                         0                        59.46024836639919        -0.4797735828816329      0.45909119358839234      -0.6700333860773284      -0.7893104658871835
0                         0                        58.31921042514738        -0.48064870162309314     -1.0836928987100976      -0.6008502136494727      -0.7445889949846052
0                         0                        58.33116503624264        -0.4806397975505946      -1.0675292084761452      -0.6015750431145435      -0.745057540133649
0                         0                        59.253847743573154       -0.47993566220425365     0.18001931874161414      -0.657518946932079       -0.7812208668350316
0                         0                        59.2837724675073         -0.4799122668367274      0.22048018895711152      -0.6593333364987757      -0.7823937267570251
0                         0                        60.18848506199893        -0.4791883852709393      0.3082737499540542       -0.2291298147919747      0.9615128696067359
0                         0                        60.39232006576687        -0.4794007165162221      0.25738597366969884      -0.21662079479922625     0.2887654762642402
0                         0                        60.543820077997424       -0.47943563648447174     0.3351512111202055       -0.19667787661739666     0.17222416638421212
0                         0                        60.251797598247144       -0.47925083763876397     0.4226994325751434       -0.2323453350040836      1.0113149943638717
0                         0                        61.4322101306393         -0.47884174711014066     0.5797804295112504       0.5279811867366231       -0.5241968666383885
0                         0                        61.62357617204709        -0.4787473820824911      0.6335400580936524       0.5591928193062738       -0.4620285572194369
0                         0                        62.8658205724863         -0.47842409156961135     0.9825183673316951       0.761801785364554        -0.058465659160816585
0                         0                        62.961503593190194       -0.47841998451164475     1.0093981816228557       0.7774076016494007       -0.027381504451255978
0                         0                        61.62891756856975        -0.4787449188390588      0.6350405933560207       0.5600639963680916       -0.4602933194035437
0                         0                        62.96417429145154        -0.47841991254248273     1.0101484492541561       0.7778431901802492       -0.02651388554318146
0                         0                        61.79569039010939        -0.4786726721999405      0.6818913557882229       0.5872644964684994       -0.4061145095378933
0                         0                        63.04756070222134        -0.47841883108885525     1.033573830470236        0.791443440230367        5.755193895140565E-4
0                         0                        64.29943101433331        -0.47867411315121594     -0.5495379341486526      2.3842824046318487       0.5714249038415744
0                         0                        66.17765275560802        -0.4797352923804494      1.9712674062726592       -0.5299623381859337      0.4312155888997058
0                         0                        66.35213822356769        -0.47980836478421285     1.9352886315018196       -0.4364379288215332      0.4063602232058372
0                         0                        68.0558744968828         -0.4802939501397119      1.5839794688351674       0.4767666522694345       0.16366386221715068
0                         0                        68.08437706565599        -0.480298557117473       1.5781022601811827       0.49204406156346536      0.15960368586915408
0                         0                        67.57326634427673        -0.48019837562551654     1.6834929138697703       0.2180881333375817       0.23241114679131414
0                         0                        67.92457021115095        -0.4802712324005107      1.6110543156864914       0.4063874057128114       0.1823680905818179
0                         0                        66.82272838188176        -0.47998382082330937     1.8382532880241857       -0.1842010685047386      0.33932489577352776
0                         0                        65.5610796981075         -0.4794423395012236      2.0984043158671852       -0.8604461985731113      0.5190461056779085