% Model:              AluminaWithRodsOriginalRydberg.mph
% Version:            COMSOL 5.5.0.292
% Date:               Mar 10 2026, 10:25
% Dimension:          3
% Nodes:              564
% Expressions:        4
% Description:        Electric potential, Electric field, x component, Electric field, y component, Electric field, z component
% Length unit:        mm
% x                       y                        z                        V (V) @ Length=0.171     es.Ex (V/m) @ Length=0.171 es.Ey (V/m) @ Length=0.171 es.Ez (V/m) @ Length=0.171
0                         0                        0                        -0.4169624687377934      3.7453456607901217       1.0592681056896538       9.359798924268588
0                         0                        0.04543819052781491      -0.4173857506955104      3.8009114326162035       1.1645425780874419       9.32983389046285
0                         0                        0.6226341114984213       -0.42237074523731416     3.9945046712253287       0.9230856559287659       7.943311537942051
0                         0                        0.8794766278446715       -0.4243316921129455      4.1182080806875785       0.9204743388027952       7.608038832318645
0                         0                        0.12966911814759466      -0.41816308974402205     3.8291627377216457       1.129306465365996        9.127496937488644
0                         0                        0.1335974493969878       -0.41819892704058836     3.830480311774517        1.1276631364057437       9.11806042054944
0                         0                        0.19031368731158252      -0.4187122055576333      3.84950310764109         1.1039371748288005       8.981818411965556
0                         0                        0.28588882349658606      -0.41955967263946076     3.8815592942361814       1.0639554677868235       8.752230748832238
0                         0                        0.1256247569669705       -0.4181261552037612      3.827806246882714        1.130998332836544        9.137212177972629
0                         0                        0.1220122530828878       -0.41809313131490217     3.8265946022730386       1.1325095425270923       9.145890024093532
0                         0                        0.19802444204408665      -0.41878139074508347     3.8520893178455635       1.100711554138254        8.963295873252157
0                         0                        2.432818336332073        -0.43492914607635197     4.1928193674590055       1.2760110959575712       6.036678109874403
0                         0                        2.8322407850814786       -0.4372596363480853      4.212004729381441        1.3674329391922981       5.632622296399608
0                         0                        1.2530673822421723       -0.4271033905363732      4.136152675079943        1.0059836923440244       7.230114365009972
0                         0                        1.3205583475234164       -0.42758905399922126     4.139394452299724        1.0214313680242526       7.161840493663132
0                         0                        1.425762876365844        -0.42833691386230727     4.144447716000933        1.0455111161042652       7.055415575344876
0                         0                        1.7849051784873342       -0.43080557234496836     4.161698311377901        1.1277134343423967       6.69210716468519
0                         0                        2.0342921594429613       -0.4324430390844338      4.173677055946115        1.184794395988618        6.439827254591075
0                         0                        3.18910769104125         -0.439205317181769       4.2291460312046425       1.4491144531745022       5.271615676863494
0                         0                        2.4017013646824052       -0.43474081318576635     4.191324733482084        1.2688888850928421       6.068156043406081
0                         0                        4.343923222639539        -0.44461852640495153     3.324424497631121        2.1375017230779605       4.595089462530893
0                         0                        5.242800558842847        -0.44802731247196065     3.9665282661408128       1.2623237651485253       3.359542092696948
0                         0                        5.449229005501396        -0.448700303348961       3.9272035486694534       1.2618196669435338       3.1607886843266826
0                         0                        6.141677895046155        -0.45065815889924427     3.795291705192433        1.2601287069625928       2.4940851405711904
0                         0                        6.554534788363258        -0.45160580242733284     3.716642270249449        1.2591205105527863       2.0965783238308093
0                         0                        5.621403571712874        -0.449230239814473       3.894404211748352        1.2613992167044052       2.995015592375843
0                         0                        6.898883920786209        -0.45227067353380856     3.6510435964074404       1.2582796100745415       1.7650321399291853
0                         0                        6.082995972186575        -0.45051014341955403     3.8064706394647914       1.2602720082006416       2.5505852613968596
0                         0                        7.015886666854317        -0.4524705968111903      3.628754517518338        1.2579938894036158       1.6523795721938068
0                         0                        7.0405552312494635       -0.45251106568680244     3.6240551442440605       1.2579336487768094       1.6286281884455605
0                         0                        7.115765422617308        -0.4525893805373666      3.826292508142629        1.2489761089574642       1.0360101748894976
0                         0                        7.2743807381244565       -0.4527519448687563      3.7411803807593813       1.1732474097721282       1.0137834515329587
0                         0                        8.01655077894883         -0.45346575169629033     3.3429359183462424       0.8189085391136306       0.9097833546428902
0                         0                        8.158265033613517        -0.45359327385839443     3.2668928095426253       0.7512490187989815       0.889924972594045
0                         0                        7.786867548911501        -0.45325309348748116     3.4661827074107476       0.9285676359025666       0.9419688065797236
0                         0                        8.656180809675632        -0.45401901105043935     2.8068038600628142       0.5169337856809593       0.664304840006551
0                         0                        7.420199987330804        -0.4528982842033996      3.662934553906627        1.1036280163152825       0.9933498376551313
0                         0                        7.381924464266323        -0.45286016057264306     3.6834729942477438       1.1219021379727305       0.9987133768553775
0                         0                        8.893111795486352        -0.45419735669168804     2.7445411879110964       0.34995140378734035      0.8411600584614121
0                         0                        9.061542837451782        -0.45434962206805213     2.7002794941094805       0.2312458808438329       0.9668840477468166
0                         0                        8.66527649604007         -0.4540250842360479      2.8044136208285693       0.5105233984160513       0.6710942415423915
0                         0                        9.552415346911573        -0.4546777260058463      2.715093685696118        0.5723319210074749       0.6493795730595053
0                         0                        9.773008313006953        -0.4548190880760404      2.6105471288917386       0.5028737648478838       0.23244600263887794
0                         0                        9.13104950140007         -0.45439721641985975     2.7650646026707477       0.49344424871071624      0.6820505320366976
0                         0                        9.208859081963915        -0.45445005177183734     2.7558369537485703       0.5080116768932612       0.6760175000723905
0                         0                        11.723973587504855       -0.45557955266812283     1.414207144784811        0.5510756827138223       0.547131780751613
0                         0                        12.04252782168147        -0.45576202778949215     1.218868369444408        0.5589461072837949       0.5985137752767518
0                         0                        11.2847662960321         -0.4553548057879231      1.6835308744117015       0.5402243189983977       0.47628875239201385
0                         0                        10.366020726466889       -0.4549852926768079      2.2469094616470215       0.5175251458953767       0.32809740925256037
0                         0                        10.605898483683664       -0.4550686365838659      2.099815427730917        0.5234517341859615       0.36678908647937014
0                         0                        10.652368126514695       -0.4550858552968302      2.071320050343644        0.5245998458085523       0.37428452266376055
0                         0                        11.008391261897724       -0.45522933167321045     1.853005189647135        0.5333960033590941       0.4317101564505794
0                         0                        12.243774210788498       -0.4558857428083243      1.0954632504024175       0.5639182418703186       0.6309743102623582
0                         0                        13.479157159679271       -0.45678832148138276     0.4479874434917215       0.8361764903888105       1.1828068942030683
0                         0                        15.28368838728976        -0.45975719983868896     0.006194290584055295     -0.40149687623075003     2.178384501398508
0                         0                        15.393276267362141       -0.45999947258940893     -0.016138194962394437    -0.4044180653679028      2.2431400423772274
0                         0                        17.08821961490025        -0.46465024719841547     -0.36154407183360604     -0.4495987011426479      3.2446830353221827
0                         0                        17.307395375045004       -0.46537559591402833     -0.406209042926406       -0.4554410794168504      3.3741941172797
0                         0                        15.10250766501554        -0.4593722171465878      0.043116401485523426     -0.3966672987499882      2.0713247090378264
0                         0                        16.72585817035181        -0.46351329350764714     -0.2876998500309753      -0.4399395461811082      3.0305634506009085
0                         0                        16.39178132484435        -0.4625338268500793      -0.21961963606230483     -0.43103434926120343     2.8331572516213726
0                         0                        18.200039312118086       -0.46862296852253327     -0.5881174602587294      -0.47923551517543217     3.9016579299604643
0                         0                        18.34920867568808        -0.4692115505645609      -0.6388056398016033      -0.24645029400052465     3.767491928441018
0                         0                        18.540816910311896       -0.46988339082711184     -0.8324431376203165      -0.22118857330446673     3.1222951748299295
0                         0                        18.745126944743195       -0.4705481231818177      -0.8698198076752988      -0.15148461408426783     3.38479936466436
0                         0                        18.88746813324573        -0.47107051245528336     -0.5609463549522218      -0.4250687437907317      3.1056278344608472
0                         0                        21.361191251727877       -0.48112310128181895     -1.3292524483471055      -0.8945534351008364      4.712347779241346
0                         0                        21.429374258438482       -0.4814456083477542      -1.3474479001295094      -0.9137722641528896      4.747694583045483
0                         0                        20.09191751902963        -0.4755594363531493      -0.9905315541496975      -0.5367816666529439      4.0543426285754816
0                         0                        20.22828353245085        -0.4761171309971735      -1.0269224577146048      -0.5752193247570228      4.125036236183835
0                         0                        21.298519986038826       -0.48082879055985395     -1.3125278706551597      -0.8768882073577764      4.679858321246703
0                         0                        19.966574987651537       -0.47505532709591747     -0.9570823987661043      -0.5014512111667235      3.989363712586343
0                         0                        21.214149337600855       -0.48043579300787975     -1.2900125528424553      -0.8531065475634803      4.636119669916429
0                         0                        19.797833690775594       -0.4743895372060951      -0.9120517631408944      -0.45388789157830356     3.901886409925692
0                         0                        22.63046498442611        -0.48752195486420913     -2.426867887107406       -1.1645692572669155      3.4115382913396672
0                         0                        19.02719280646322        -0.4715365228124677      -0.7589697593812019      -0.15813173274959524     3.5768659701918857
0                         0                        18.963887711598158       -0.47131702022445005     -0.6651434271297774      -0.28016484541949893     3.3578867060433666
0                         0                        23.53600763118509        -0.49101603586508924     -0.22401485885618744     -1.346264407615843       3.932535352177215
0                         0                        23.596462916599624       -0.4912540770255036      -0.21670622461509303     -1.359364434728608       3.942414167356162
0                         0                        24.44155027794407        -0.4946441118067767      -0.11454089062695516     -1.5424860140945924      4.08050733481835
0                         0                        24.562460848773142       -0.4951386827310843      -0.09992362214511274     -1.56868606831992        4.100264965176109
0                         0                        23.66823161944494        -0.49153743981033726     -0.2080298748891103      -1.3749159608965513      3.9541416738294046
0                         0                        23.713192820850036       -0.4917153879349034      -0.20259437038607686     -1.3846585822965025      3.961488647644053
0                         0                        24.72339650421198        -0.49580067770432656     -0.0804675922236271      -1.6035591391385537      4.126562973445687
0                         0                        24.795920657273946       -0.49610038292917213     -0.07169991368689921     -1.6192743634556166      4.138413925751877
0                         0                        25.347092924703045       -0.49840618268927084     -0.005066922397872986    -1.7387076205732797      4.228479317459346
0                         0                        25.414640999158824       -0.49867488241679614     0.09455942538839679      -1.5957617199742788      3.9450858900380297
0                         0                        25.652258928864764       -0.499584873808543       0.2969561772494842       -1.5784889166742793      3.7141963272027567
0                         0                        26.127034554562623       -0.5013130282115307      0.014227364999612746     -1.689419279883225       3.318634561522373
0                         0                        26.434676401432178       -0.5023354867376875      -0.03422038324194432     -1.4728577953235913      3.32843596260264
0                         0                        26.031417266682993       -0.5009958550169467      0.0292852719063319       -1.7567281392712175      3.3155882159155965
0                         0                        28.28833766794479        -0.5078453160518728      0.9131172643285659       -0.9490061543149753      2.547457140344971
0                         0                        28.303680212077257       -0.5078843465621687      0.9218882227470644       -0.9456232029219627      2.5404226739743
0                         0                        27.516278281203004       -0.5057418792514103      0.4717497362780847       -1.119241244096294       2.9014418344849204
0                         0                        27.894905271596613       -0.5068075789493021      0.6882015554942744       -1.0357559568112191      2.7278435832504018
0                         0                        26.62303400395822        -0.5029672700662559      -0.0388962391000689      -1.316196973596787       3.3109890891426232
0                         0                        26.760157600632514       -0.5034169742935123      0.03949397794879417      -1.2859619318476074      3.2481187254612323
0                         0                        27.024456481832974       -0.504259434637546       0.19058720453892164      -1.2276853995717794      3.126939240786985
0                         0                        27.387217814794333       -0.5053635993374456      0.3979690142170398       -1.147698407448777       2.960615300298283
0                         0                        28.409522558447783       -0.5081506626950804      0.9588391456595602       -0.9117281742607908      2.544340374052666
0                         0                        28.462308980729027       -0.5082835943103537      0.9709378017069099       -0.8999333565234977      2.4922432597179096
0                         0                        28.481150984647517       -0.5083303779750731      0.9752563918821409       -0.8957232208026369      2.4736473028407175
0                         0                        28.762367141947166       -0.5089869826474612      1.0397111780766295       -0.8328871130162288      2.196103387824323
0                         0                        29.228189826609412       -0.5099028988163141      1.1464778085317797       -0.7288017549633099      1.7363636173711008
0                         0                        28.518083418977753       -0.5084210626951706      0.9837213114701058       -0.8874708840710923      2.437197148221003
0                         0                        28.611591056139435       -0.508644644492061       1.0051532761861068       -0.8665771487182816      2.3449105742524523
0                         0                        29.47701921988606        -0.5103044033516521      1.2341255340946304       -0.7690795024478092      1.6524829028520287
0                         0                        29.998607614696272       -0.5110933924260919      1.2944600909849555       -0.5038989158022957      1.3728492643911494
0                         0                        30.147952054387858       -0.5112924410910044      1.311735457312988        -0.4279707576535827      1.292782818376672
0                         0                        29.80606168277834        -0.5108191178576306      1.2721874070086159       -0.6017911306028054      1.476076866939053
0                         0                        30.245270416315012       -0.5114157138405402      1.322992725117711        -0.37849316082824913     1.24060856008116
0                         0                        30.793917245975603       -0.5120156802526997      1.3864572570861284       -0.09955580409578246     0.946468370739467
0                         0                        31.01352161274395        -0.5122106013728167      1.4118599161407843       0.012093180791374891     0.8287342173104193
0                         0                        30.331647007616386       -0.5115208734084565      1.3329843073954137       -0.3345784660579696      1.194300396893972
0                         0                        31.78177280917293        -0.5126890659484814      4.031434423006118        -1.9416587773207539      0.9745478721760501
0                         0                        34.021376729153005       -0.5139421285967305      0.8659308890243551       1.5661491280690854       0.4789195107105808
0                         0                        34.038504562387175       -0.513950320894865       0.8534755549885631       1.5719784924901958       0.4776869698034094
0                         0                        34.46433457094414        -0.5141472099282627      0.5438126264351695       1.7169074083315792       0.44704369473904393
0                         0                        32.901574769163005       -0.5133607154312827      1.6802491553803236       1.1850306517823554       0.5595018998987147
0                         0                        32.93099457345723        -0.5133771447255382      1.6588551188584688       1.1950435213664647       0.5573848129457009
0                         0                        33.3854106299231         -0.5136229995489809      1.3284044601464728       1.3497015423632206       0.5246844491100937
0                         0                        33.703973466754455       -0.5137864931178036      1.096746054211735        1.4581226626261667       0.5017602576765832
0                         0                        33.78907900892014        -0.5138289350904528      1.0348574345897816       1.4870878687184614       0.49563595341038713
0                         0                        32.78542590904653        -0.5132952445244356      1.7647124281632216       1.1455000221070861       0.5678601212486853
0                         0                        34.79273210879375        -0.5142901376465336      0.24797595438099052      1.7867973283520229       0.28419721708202594
0                         0                        36.8650531455708         -0.5148137034168874      -0.17022208584705822     2.4235539900071217       0.22109685759322062
0                         0                        37.17928890718047        -0.5148816766204565      -0.23363541676570776     2.520108390114217        0.2115286540331276
0                         0                        36.0004052684297         -0.5146111503630535      0.004265380761921733     2.157875899602786        0.24742462771692075
0                         0                        35.305736443279514       -0.5144319253503279      0.1444507748826993       1.9444268276644223       0.2685766846688935
0                         0                        35.76614843258477        -0.5145523539855631      0.051538823400207434     2.085896414708685        0.25455754307714074
0                         0                        35.9958147429127         -0.5146100142331602      0.005191756907677814     2.156465380840743        0.24756440519604617
0                         0                        35.99841057975109        -0.5146106567673745      0.004667912455246892     2.1572629968326424       0.24748536423914125
0                         0                        37.20408905070843        -0.514886913197614       -0.23864012947021251     2.5277286653133615       0.21077351139634004
0                         0                        37.34821664325038        -0.5149169752201699      -0.26772533184688996     2.57201437348823         0.20638495250976163
0                         0                        38.13254920920946        -0.5148977727197491      1.02118474746305         3.2664768685846184       -0.5962797137127609
0                         0                        38.26916267047306        -0.5150400936796257      1.1130734390487476       -0.35307281497580334     1.093585758208576
0                         0                        37.9557113882985         -0.5150128167782688      -0.12115986304746684     2.655096554379554        0.14872343744377758
0                         0                        38.34889352045956        -0.5151037090078672      1.427819190762989        -0.724379367625815       1.1164634398125486
0                         0                        38.82122118306325        -0.5156353608906804      0.18550657455324426      0.732088385627037        0.9247136925607613
0                         0                        39.233080858613135       -0.5160131745187994      -2.9501461951074077      1.1239559772398877       0.36451681938712
0                         0                        40.55665386303911        -0.5166928803525925      -2.391818449100322       0.8350174232550671       0.640285958112747
0                         0                        40.73037907945856        -0.5168069303086413      -2.3069709588728955      0.8043277668853932       0.6727065757239288
0                         0                        40.80645268988427        -0.5168586455300002      -2.2698165661473855      0.7908888832804735       0.6869034406625231
0                         0                        41.4930007293356         -0.5173742192660418      -1.9345061301113695      0.669605837294938        0.8150271058249666
0                         0                        41.619748575881715       -0.5174790212241003      -1.872602412891366       0.6472150299253201       0.8386808018778897
0                         0                        39.59521803239644        -0.5161635384626507      -2.86138423192763        1.0048611331768598       0.46086270531480866
0                         0                        39.49537177598734        -0.5161184148467182      -2.8690700389113744      1.0582477955641707       0.4379534222248367
0                         0                        39.55734956487651        -0.5161460959704051      -2.8499122238298114      1.0427213417587637       0.45530605613592456
0                         0                        39.4931233982396         -0.5161174308696709      -2.8697650299057216      1.0588110511088829       0.4373239180645214
0                         0                        39.47711787635075        -0.5161104671344996      -2.874712460818074       1.0628206971561696       0.4328426681381927
0                         0                        41.94781715143769        -0.518069216489319       -1.397900080707906       1.2517192151485972       1.7587728874913369
0                         0                        42.82857054829362        -0.5195776972455494      -1.0334886371253518      0.8398133537727404       1.6666598422952479
0                         0                        42.870682897924915       -0.5196477914699635      -1.0160646655839685      0.8201184837769517       1.6622555484500072
0                         0                        44.16865254729336        -0.5217172507531582      -0.47903012749274865     0.21309124054270967      1.5265082014600004
0                         0                        44.18970872210905        -0.5217493699923106      -0.47031814172204633     0.20324380554495747      1.524306054537453
0                         0                        43.134789616389526       -0.5200831568246269      -0.9067905930921043      0.6966025192033527       1.6346341118692171
0                         0                        44.32176208134134        -0.5219497478514382      -0.4156811054759686      0.1414858232581082       1.510495336247006
0                         0                        42.778238051909405       -0.5194936776201148      -1.0543136918251008      0.8633525763887775       1.67192383506646
0                         0                        44.11913859849849        -0.5216415391030796      -0.49951650838229966     0.2362476493641168       1.531686586941781
0                         0                        45.508734546293155       -0.5236689895697534      -0.10643466054162332     3.450575462564487        2.082702666344062
0                         0                        47.23077446336331        -0.5253603587207742      1.2338398849971295       2.4032828766990164       0.7077578440842309
0                         0                        47.378867800616405       -0.5254616778251163      1.206349341639994        2.356496882132909        0.6605563045648317
0                         0                        46.36975450482825        -0.5246328196182358      1.3936708871246744       2.675298322150425        0.9821892827538932
0                         0                        46.443801173454794       -0.5247046736833958      1.3799256154460124       2.6519053248673714       0.9585885129941545
0                         0                        47.93538530732518        -0.5257799320233549      1.1030430826884912       2.1806805656955506       0.48317841860879573
0                         0                        48.08354563461343        -0.5258480216164911      1.0755401039812926       2.133873407480045        0.4359555274686102
0                         0                        46.802336606644005       -0.525027875742261       1.3133707382718498       2.538635969607583        0.8443131192953715
0                         0                        48.0917944218984         -0.5258516068773686      1.0740088828696144       2.131267431247633        0.43332640541466194
0                         0                        46.828748391245604       -0.5250500643888789      1.3084679227690863       2.530291896648194        0.8358949357512486
0                         0                        48.11858936809264        -0.5258564627554518      1.016241578435583        2.020253937091468        0.17405364977298632
0                         0                        48.42078277122001        -0.5258846242588618      0.9224002440474948       1.9112101885162076       0.012327013197122483
0                         0                        49.657532082816765       -0.5254905808146284      0.5383475000007039       1.4649404169445148       -0.6495514539770113
0                         0                        49.82454235398998        -0.5253746353713475      0.48648512795279686      1.404676275401883        -0.7389313317340509