% Model:              AluminaWithRodsOriginalRydberg.mph
% Version:            COMSOL 5.5.0.292
% Date:               Mar 10 2026, 10:26
% Dimension:          3
% Nodes:              620
% Expressions:        4
% Description:        Electric potential, Electric field, x component, Electric field, y component, Electric field, z component
% Length unit:        mm
% x                       y                        z                        V (V) @ Length=0.176     es.Ex (V/m) @ Length=0.176 es.Ey (V/m) @ Length=0.176 es.Ez (V/m) @ Length=0.176
0                         0                        214.8215928734449        0.99988182042447         4.6984296236018963E-4    -3.213079065602642E-4    -0.0013591158599020048
0                         0                        215                      0.9998820561280467       4.657337636047032E-4     -3.230596523735585E-4    -0.0012831953690337627
0                         0                        214.60510991472688       0.9998815162274616       4.748291505194402E-4     -3.191823015100681E-4    -0.0014512393802448287
0                         0                        214.68437070510015       0.9998816299171424       4.73003560088614E-4      -3.1996054829619425E-4   -0.0014175102448668042
0                         0                        214.10326935002158       0.9998805592448357       4.5606226709082875E-4    -2.757308010004067E-4    -0.002125821132949568
0                         0                        213.2691181619408        0.9998784782446847       4.6841373465156266E-4    -3.605427388890803E-4    -0.002863682403187795
0                         0                        213.53437587284355       0.9998792067387821       4.6448600294723974E-4    -3.335727832833868E-4    -0.002629044612902476
0                         0                        213.75004907191644       0.999879753180496        4.6129248061532735E-4    -3.1164431020158645E-4   -0.002438267565501917
0                         0                        213.90052705203223       0.9998801100711924       4.590643186155319E-4     -2.963445308945545E-4    -0.0023051599526198174
0                         0                        213.1470765748037        0.9998781221689146       4.3533391186656445E-4    -3.373105216653016E-4    -0.0026242186777380994
0                         0                        214.08106628423496       0.9998805118270548       4.5639103290540106E-4    -2.779882877028683E-4    -0.00214546119627812
0                         0                        212.2061148479548        0.9998747986225848       3.691633202720368E-4     -3.3729297730644703E-4   -0.004439929066045067
0                         0                        212.2169765364635        0.9998748467338859       3.6992713920369624E-4    -3.372931798608647E-4    -0.004418969998248201
0                         0                        212.49895421625286       0.999876016070888        3.8975645780681134E-4    -3.3729843735841314E-4   -0.0038748566854351907
0                         0                        212.2026384234577        0.9998747831758461       3.689188499862439E-4     -3.3729291261153094E-4   -0.004446637288111788
0                         0                        212.04406164900132       0.9998740537806053       3.577673668004877E-4     -3.3728995598991673E-4   -0.004752632195494044
0                         0                        212.19351604024078       0.9998747425316268       3.6827734308531035E-4    -3.3729274242233487E-4   -0.004464240135618525
0                         0                        211.3566498225628        0.9998701359132982       3.973966169610321E-4     -3.3053496699153584E-4   -0.006309858900237941
0                         0                        210.8234182583612        0.999866518811162        5.984536215066782E-4     -4.992914055037545E-4    -0.007256862872736747
0                         0                        210.59412765443136       0.9998648094918994       5.920952822862091E-4     -6.503325420226247E-4    -0.007997479350233316
0                         0                        210.70222391543555       0.999865628174069        6.157366033505696E-4     -5.664933933644534E-4    -0.007467657909984382
0                         0                        210.74663152774622       0.9998659578614593       6.054743984122979E-4     -5.490199915243466E-4    -0.0073805797279931085
0                         0                        209.93588838328307       0.9998586076666297       0.0010187654694959747    -0.0010568832570925224   -0.010846201182070025
0                         0                        209.9432261877203        0.9998586871374211       0.0010140091106052296    -0.00105235118218161     -0.010814444699903891
0                         0                        209.75322951658686       0.9998565543150425       0.0011371648062379336    -0.0011696995173053892   -0.011636710536658601
0                         0                        209.97952992038537       0.9998590768902009       9.904770589059808E-4     -0.0010299287759494291   -0.010657329741294852
0                         0                        209.69081354371596       0.9998558195684298       4.0590745923907434E-4    -0.0013242026339810309   -0.010946859052392455
0                         0                        208.60686868507653       0.9998407933289939       3.715462172522166E-4     -0.0017180643993981448   -0.016778240275733936
0                         0                        208.87799138835933       0.9998451445638339       3.801408542187801E-4     -0.0016195493637383152   -0.015319660691446302
0                         0                        209.46430057388912       0.9998532019497482       3.987269586787079E-4     -0.00140650829504807     -0.012165448234693343
0                         0                        209.57398400344587       0.9998545039372533       4.022039422721946E-4     -0.0013666537685423918   -0.011575375882969752
0                         0                        209.2137373701529        0.9998499848597131       3.907840608690094E-4     -0.001497552839623495    -0.013513422303653044
0                         0                        208.56360451457206       0.999840062397444        3.701747350817186E-4     -0.0017337848509555442   -0.01701099184952426
0                         0                        209.1702438745351        0.9998493920253203       3.8940530973263776E-4    -0.001513356618289663    -0.013747407595104733
0                         0                        209.12720902914398       0.9998487954260923       3.880410974801407E-4     -0.0015289937424824984   -0.01397892545070789
0                         0                        208.98768118378376       0.9998467926099451       3.8361803997588595E-4    -0.0015796925238475978   -0.014729554093172226
0                         0                        208.00000000000009       0.9998296204824848       -8.7941303750938E-4      0.0015070309166276274    -0.02110603316708648
0                         0                        204.86541739798045       0.9997264502640425       -6.328226701057815E-4    -4.094789504875962E-4    -0.044080462774502394
0                         0                        205.13956350453236       0.9997389615346512       5.989652589306615E-4     -3.816683895143669E-4    -0.044417789057916934
0                         0                        205.9102782653203        0.999770552764799        8.413526670452143E-4     -4.554344502740726E-4    -0.0375612562516352
0                         0                        206.24626805083324       0.99978267081373         9.470204152677297E-4     -4.8759244704044136E-4   -0.03457218026110809
0                         0                        205.4150364819999        0.9997508598846496       6.8560065788148E-4       -4.0803424821400647E-4   -0.041967090559168696
0                         0                        206.56978175226618       0.999793389837827        0.0010487644734951118    -5.185563427154705E-4    -0.031694095630996344
0                         0                        206.95513913266015       0.9998049428376129       0.0011699581778259471    -5.554393732101204E-4    -0.02826582922784837
0                         0                        206.3057178147497        0.9997847104006486       9.657171819554833E-4     -4.932824574312988E-4    -0.03404329554609831
0                         0                        203.70456052643723       0.9996610048299945       5.817181042857555E-4     -2.949387533064396E-4    -0.0686732033359494
0                         0                        204.2547819436739        0.9996955834871916       6.051661145534126E-6     -3.4922836579553973E-4   -0.05701676842370773
0                         0                        204.82933219184432       0.9997248458185234       -5.950687011342382E-4    -4.05918471244604E-4     -0.044844927485105046
0                         0                        203.58232569426139       0.9996524523062944       7.096056944142504E-4     -2.8287800576975997E-4   -0.07126274696449286
0                         0                        203.10608948759756       0.9996161120184079       0.0012078654759548613    -2.358884152755536E-4    -0.0813518059722469
0                         0                        204.56083675806445       0.9997120415494616       -3.141566781934557E-4    -3.7942638546439866E-4   -0.05053300041392106
0                         0                        202.98411456382857       0.9996060315441896       0.0013354811380779097    -2.2385331254781704E-4   -0.08393584344381111
0                         0                        202.97184177070764       0.9996049998214904       0.0013483214873986071    -2.2264237239255635E-4   -0.08419584243652167
0                         0                        202.54370365489402       0.9995670107440754       0.0017962588783149158    -1.803985564663435E-4    -0.09326594389753495
0                         0                        201.3828467833508        0.9994444680062854       -0.0051432306022434204   0.00881912810766039      -0.12634987515927776
0                         0                        199.85629245727316       0.9992273580032291       0.004848821526792335     -0.0040941371659641845   -0.1790684099612463
0                         0                        198.32973813119548       0.9988977526945051       -0.008497023107928214    -0.008614770326325072    -0.2527607140905559
0                         0                        196.8031838051178        0.9984556520801142       -0.01096286176226613     0.0013194210917788496    -0.3477839685308055
0                         0                        195.27662947904005       0.9978311093398405       0.007426495228116892     1.617704743921422E-4     -0.5112815859880584
0                         0                        193.75007515296238       0.9968946538462459       -0.031439681563327326    -0.002250846783953264    -0.7156062850795593
0                         0                        192.22352082688468       0.995646285599328        0.050964488830125276     -0.019376781583495983    -0.9189130669479653
0                         0                        190.8877489675542        0.9941037350657909       -0.018805048256972157    -0.012039329769550022    -1.390688715365613
0                         0                        189.55197710822375       0.9919309998971798       -0.08857458534444618     -0.004701877955056943    -1.862464363783488
0                         0                        188.2162052488933        0.9891280800934946       -0.04993162668881723     0.22410508071254753      -2.753346239744104
0                         0                        186.88043338956282       0.9852642678598258       -0.08519267616071602     0.32186250114502         -3.4698036340923863
0                         0                        185.54466153023236       0.9798583479898494       -0.27562879422367104     0.18127228643264104      -4.624272958726905
0                         0                        184.20888967090187       0.9729103204835653       0.03223816839826554      -0.03144567740423554     -6.616512161515416
0                         0                        181.0931891617768        0.9454023149094946       0.1720000025257522       -0.2778803085824393      -11.93210918597091
0                         0                        181.59757088935496       0.9511672664489944       0.06899995371714929      -0.19349386736737983     -10.927368960396468
0                         0                        182.65103941633933       0.9615735359694285       -0.1461293893278348      -0.01724152699955539     -8.828834958143958
0                         0                        182.9032302801284        0.9637367409074314       -0.19762941373198717     0.02495169360804539      -8.326464845356789
0                         0                        180.91780809033756       0.9432790129692542       0.20781466021594386      -0.30722273648194687     -12.28147239174231
0                         0                        180.84567223623495       0.9423878956405227       0.22254555962624178      -0.31929154801684945     -12.425168704198256
0                         0                        182.5326467371011        0.9605143056206918       -0.12195236015857347     -0.03704941519328031     -9.064675950670186
0                         0                        182.5272809535684        0.9604656378549429       -0.12085661077736432     -0.03794714671670363     -9.075364717257546
0                         0                        181.74928285364706       0.9528021543347034       0.03801877642121121      -0.16811143962195274     -10.625155170937703
0                         0                        182.97908626227448       0.9643626218951259       -0.2131200023799975      0.03764290748085841      -8.175357950627506
0                         0                        180.51947944501973       0.938228917802298        -0.26540456954006686     0.24812342855540237      -14.874578337526145
0                         0                        180.26401842040283       0.934343177142589        -0.09967296241165968     0.10296955620219705      -15.546818942439472
0                         0                        179.60415862249144       0.9237325019126006       -0.6341178159464675      -0.2138010051723711      -15.976254475644112
0                         0                        177.33089188410992       0.8744809182809763       0.8899678859632281       0.04768542671344189      -27.354853836519567
0                         0                        177.40248306086937       0.8764264573886809       0.841970399773099        0.03945052798866744      -26.996511674394128
0                         0                        178.4675252533007        0.9023400340288448       0.12792503500831742      -0.08305778922958496     -21.66555415608167
0                         0                        178.6107076068197        0.9053908507890676       0.03193006262790732      -0.09952758667931505     -20.948869831830336
0                         0                        177.6099451520647        0.8819194927424163       0.7028798119680246       0.015586842719383043     -25.958081833133136
0                         0                        179.02563178921025       0.913652173823191        -0.24625111298206548     -0.14725495721827997     -18.87201014930912
0                         0                        177.72274827158157       0.8848157996620751       0.6272522497976851       0.0026114691169638604    -25.39345759350124
0                         0                        179.25123802824396       0.9177824343048119       -0.3975062373224887      -0.1732057044225428      -17.742761670045354
0                         0                        176.19425851491914       0.8401551546689964       -0.8474829225103662      2.038739029306086        -35.15486477531954
0                         0                        177.86933930155763       0.8884844724672043       0.5289719692471309       -0.014250417228318213    -24.659711495063505
0                         0                        179.3515828152063        0.919537628089617        -0.4647812528268389      -0.18474803681095864     -17.240496313534834
0                         0                        175.11403557347035       0.7986723003416897       0.6766003738333453       1.3928379144121887       -42.81802048445691
0                         0                        175.12276326473142       0.7990456914151262       0.6665747056222777       1.3914179875815673       -42.7466637526154
0                         0                        174.03381263202155       0.7476491385995266       1.9174734158686988       1.5685817041547345       -51.64981533789842
0                         0                        174.0512680145436        0.7485494603243922       1.8974220794464998       1.5657418504928842       -51.5071018742164
0                         0                        175.0476252932897        0.7958107144149538       0.7528871505980135       1.403642345487719        -43.36098430073023
0                         0                        173.9009920716601        0.7407168644254487       2.0700469693977936       1.5901905663055196       -52.73574297044621
0                         0                        175.03762492372445       0.7953766797220123       0.7643747690587652       1.4052693270842482       -43.44274632324421
0                         0                        173.88099133252965       0.7396604752865629       2.0930222063194037       1.5934445294990418       -52.89926701547398
0                         0                        174.94232704976304       0.7911995528846116       0.8738452850277341       1.4207735428179173       -44.221892220356594
0                         0                        172.97977276435589       0.6886664613968065       3.1282694532705477       1.7400657134046398       -60.26753999581604
0                         0                        173.76476445636095       0.7334569358930981       2.226534273008383        1.6123537295392723       -53.84952634379539
0                         0                        172.92523172822442       0.6851793001134899       -0.3412017181499607      -1.543323630506734       -62.13045740837951
0                         0                        172.66847409903457       0.668887339795642        0.9275453160044549       -1.6370566407709841      -66.22319840204194
0                         0                        171.00351632032607       0.5474410715541272       0.2598469820148672       2.098062673410718        -79.66190426490932
0                         0                        171.26298547958083       0.5678391750753591       0.36390194819549704      1.5159768808695275       -77.56759907813452
0                         0                        169.3385585416175        0.4036199254504482       -0.4078513519748199      5.83318198759293         -93.10061012777749
0                         0                        169.46829312124493       0.41563036801767905      -0.35582386888445683     5.54213909132228         -92.05345753438965
0                         0                        171.40059354907754       0.5784366817603424       0.4190869384227093       1.2072708195285893       -76.45689561527692
0                         0                        169.53709715599328       0.421944912088668        -0.328231373770862       5.387786060651504        -91.49810580296077
0                         0                        172.5586336171557        0.6615646607275362       0.8834959667098978       -1.3906436021996935      -67.1097757955846
0                         0                        170.75907514202393       0.5277272797506827       0.1618186898875269       2.646435117404991        -81.6349111110789
0                         0                        167.673600762909         0.23742390148461928      -0.28266831206232723     -8.686079350500126       -106.37859391024043
0                         0                        162.7147792595157        -0.1985039536196905      2.6432417020113235       -1.7725475594541322      -70.47593283120409
0                         0                        164.3677197606468        -0.0754482708416421      -0.3606066201416446      2.011617538269867        -81.17804834147897
0                         0                        166.0206602617779        0.06986101419312776      -1.4487298267290498      -2.7684178414888905      -94.6410872357971
0                         0                        161.06183875838465       -0.2946531721631695      1.932027628400789        -0.025651453108508804    -51.16835563364516
0                         0                        159.40889825725358       -0.36766044842594825     -0.22146245273549425     -0.0339608993863294      -37.167886612003464
0                         0                        157.7559577561225        -0.41752578240802546     -0.4005304547310269      0.37702036520569493      -25.588975196305142
0                         0                        155.77421092943317       -0.45704098204339294     -0.1647653169758172      0.7327847675537456       -15.618398274698635
0                         0                        155.9736767642688        -0.4538388908128685      -0.10874670148850996     0.5887692983612496       -16.488265336777445
0                         0                        156.07332889075778       -0.4521741466394284      -0.0807600833244706      0.5168198952759226       -16.922846539971147
0                         0                        154.33891783196987       -0.4749660045493063      -0.30108163357809303     1.4686300656438647       -10.203017759373381
0                         0                        154.39070002539302       -0.4744755225526117      -0.5533148919943329      1.7316875227170492       -9.584931107535695
0                         0                        154.80928091128692       -0.47008140979732943     -0.43575931303219484     1.4294697382694892       -11.410355124410277
0                         0                        155.07748827690506       -0.4668642144456854      -0.360435108775079       1.2358224922023924       -12.580002815456917
0                         0                        155.4779311400208        -0.4614769905263889      -0.24797346945710608     0.946700463540715        -14.326327228136261
0                         0                        156.61694444807162       -0.44233024981262903     0.07191062794403535      0.12432636568785682      -19.29354460027125
0                         0                        152.00583566745053       -0.49286245699085285     0.41435362716921986      1.3809605685092379       -5.433445824326853
0                         0                        152.0060194160215        -0.49286153011200917     0.3289291964057952       1.0399328111327009       -5.044499179623159
0                         0                        152.0074889151272        -0.4928541146237113      0.328707132222803        1.0402195542008315       -5.048039521621433
0                         0                        152.01896094860405       -0.4927960448097612      0.3269735294374527       1.0424580898100544       -5.075678137911723
0                         0                        152.0200415650063        -0.49279055854205334     0.3268102314827672       1.0426689502737077       -5.078281577150165
0                         0                        153.35692726937742       -0.4839388686943985      0.0497676255031525       1.3392308742951897       -8.071830262391082
0                         0                        153.77476228587355       -0.48037672562249456     -0.09951803114192614     1.3942899709009566       -8.978646271505355
0                         0                        154.26862621319938       -0.475677829620631       -0.27596758125955034     1.4593675747666595       -10.050465764707809
0                         0                        153.1703999558946        -0.48540673096490156     0.11641080134087556      1.3146517342823856       -7.667015090551885
0                         0                        152.02520038307944       -0.4927638563888869      0.525571985702733        1.1637461102365876       -5.181619503154408
0                         0                        151.97609147361374       -0.49302303066716635     0.4307450717060135       1.3700115902278753       -5.363530365029604
0                         0                        151.962226268988         -0.49309717117295526     0.43838591528901816      1.364907742897401        -5.330939394335331
0                         0                        151.95076078933607       -0.49315801767206313     0.5072750311991285       1.3671203592625698       -5.294500442090804
0                         0                        151.1072184955964        -0.4968527507013811      0.5933959261774353       1.1739529571623475       -3.1994333314441263
0                         0                        150.27616286439053       -0.4991444616593208      0.6072438917078653       1.7315405594768194       -2.3157472939837387
0                         0                        150.35285894703276       -0.49896372550748        0.6059658969877262       1.68008216942264         -2.3973005075279517
0                         0                        150.27027209444503       -0.4991580847444909      0.607342050213898        1.735492906547755        -2.309483464036372
0                         0                        149.4333256932936        -0.5007185784488686      0.6212881742501857       2.2970328559332387       -1.419533596628419
0                         0                        149.47461911958746       -0.5006590544762713      0.6206000976371371       2.2693274873706457       -1.4634421183742106
0                         0                        151.0293485496445        -0.49709866653103935     0.5946934811026994       1.2261989378467595       -3.1166319143167387
0                         0                        149.76772102901836       -0.5001844421503931      0.61571611034881         2.0726739965852943       -1.7751060493932265
0                         0                        149.81286392089328       -0.5001032252605289      0.6149638896945895       2.042385871582667        -1.8231078217686587
0                         0                        148.59637929214222       -0.5015342318145147      1.4105353005346615       1.598274040717314        -1.9799104063692994
0                         0                        146.4148151823725        -0.5035447333120475      0.9607478139490402       2.0756403060890705       -0.4066276821764063
0                         0                        146.52021993072393       -0.5034992502635114      0.9427876557359456       2.148519836594751        -0.45638938768688675
0                         0                        147.50559723725743       -0.5028203368482953      0.7748869434645478       2.8298348304103804       -0.9215871715755135
0                         0                        147.566279760475         -0.5027635433880828      0.7645471083545976       2.871792274179839        -0.9502354620672442
0                         0                        146.53618022880772       -0.5034919060234125      0.9400681437291167       2.1595551936281936       -0.463924263160024
0                         0                        146.63592571196952       -0.5034432831682385      0.9230722807660952       2.228521763888068        -0.5110142229268355
0                         0                        146.55189701202966       -0.5034845563177642      0.9373901247813663       2.170422178277285        -0.4713441749809313
0                         0                        146.25802964758344       -0.5036026841250101      0.9874628628855682       1.9672347897889182       -0.3326090470342251
0                         0                        145.50608069714056       -0.5037193197205034      1.1144142602112335       1.5056240035572337       -0.2264453893888856
0                         0                        146.03609357589878       -0.5036648752523055      1.025279062089119        1.8137825311416833       -0.22783276689462184
0                         0                        143.97843718576016       -0.504446072711091       0.5508132812066218       1.1594100671986745       -0.7250239621628225
0                         0                        144.22706424086195       -0.5042758995181553      0.6425404745069916       1.215757081924819        -0.6438792963018116
0                         0                        144.24628561281267       -0.5042635835654143      0.6496319091044986       1.2201132728788693       -0.6376059975102635
0                         0                        144.26580479950508       -0.5042512001883719      0.6568332179486449       1.2245369583846575       -0.6312355006171799
0                         0                        143.73137991286774       -0.5046351555562912      0.4596652353209669       1.1034188164147452       -0.8056562966010716
0                         0                        142.98649052848484       -0.505325825523306       0.18484955799780578      0.9346025422005155       -1.0487666056315845
0                         0                        144.58645927968368       -0.5040655703163106      0.7751338408390869       1.2972077411729293       -0.5265831704825752
0                         0                        144.85788350962272       -0.5039346649428876      0.8752717071537695       1.3587213406288683       -0.4379981673905249
0                         0                        141.72669544415703       -0.506906045594178       -1.3900743291623598      2.8836378495226427       -0.17336181160601427
0                         0                        139.26508931921663       -0.5107362773123745      -2.07633178333397        0.433912079017702        -1.6214636423703013
0                         0                        139.7155743036428        -0.5100112300802776      -2.0951183100763515      0.6414968224382136       -1.5974992849756262