% Model:              AluminaWithRodsOriginalRydberg.mph
% Version:            COMSOL 5.5.0.292
% Date:               Mar 10 2026, 10:24
% Dimension:          3
% Nodes:              486
% Expressions:        4
% Description:        Electric potential, Electric field, x component, Electric field, y component, Electric field, z component
% Length unit:        mm
% x                       y                        z                        V (V) @ Length=0.165     es.Ex (V/m) @ Length=0.165 es.Ey (V/m) @ Length=0.165 es.Ez (V/m) @ Length=0.165
0                         0                        0                        -0.44661089435663737     -1.3148859469219545      0.6443578293551409       11.923139129358546
0                         0                        0.6585023308993263       -0.45406876733147156     -1.3819658405329243      0.3165611811267657       10.727875528854458
0                         0                        1.9328242920035776       -0.4662657477284713      -1.511777653742989       -0.3177850436518206      8.41482273623842
0                         0                        3.207146253107829        -0.4755151541546476      -0.8596104458735994      -0.5979064681568786      6.622329442869482
0                         0                        5.860100920325226        -0.4906028660483805      -1.1807965089181423      -1.4642912624062818      4.490521938243745
0                         0                        7.1865782539339245       -0.4957658014256769      -2.99141901086017        -0.4599319232576704      2.367125865399416
0                         0                        4.533623586716527        -0.4838526502913709      -1.126657222726493       -1.063268592736339       5.687135208216006
0                         0                        9.839532921151322        -0.5012594937822193      -2.5837199766031063      -0.6579292278906337      0.90592252969995
0                         0                        11.166010254760018       -0.5016885992455625      -1.3743055039010983      -1.526892413064047       1.758462050505159
0                         0                        8.51305558754262         -0.49928522784225743     -3.0888242697918464      -0.4773863799775935      2.07078259739167
0                         0                        15.398502558570886       -0.49994512572429306     -0.46186733164451255     -0.7705396955009789      -0.27100732935330996
0                         0                        15.455607245669977       -0.49985783939981254     0.5585412078660372       -0.010425854188611083    -1.5751200078456975
0                         0                        15.299415258015404       -0.49997832257131747     -0.7749470784176964      0.9182640235255235       -1.2638411179613769
0                         0                        14.640823657316153       -0.500721474613342       -0.7501936090208758      0.43004551457509876      -0.9929506213677257
0                         0                        14.740258106732615       -0.5006207077219688      -0.7539308987130262      0.5037569596967444       -1.0338497876376636
0                         0                        12.903416956038082       -0.5018258353031982      -0.6848923759586185      -0.8579060903916229      -0.27832419188573
0                         0                        12.953134180746314       -0.5018114894485487      -0.6867610208046528      -0.821050367830992       -0.29877377502063496
0                         0                        13.983778117313886       -0.5012851036092341      -0.7254982490290907      -0.05702688888666785     -0.7226960471718371
0                         0                        14.210044651108266       -0.5011110526527889      -0.7340025811734572      0.1107060576572767       -0.8157635166582651
0                         0                        12.574894186036948       -0.5018950749423448      -0.672544695962813       -1.101442292122556       -0.14319690478777147
0                         0                        12.652486053580805       -0.5018827258578779      -0.6754610221300794      -1.043922904024214       -0.17511182673382564
0                         0                        13.92161359026361        -0.5013292349129671      -0.7231617665773236      -0.10310988276920341     -0.6971266661089075
0                         0                        12.54381192251181        -0.5018993271377153      -0.6713764547368584      -1.1244837890636177      -0.13041221425635285
0                         0                        15.620435241824804       -0.49970868998382467     -0.348426036537802       0.11465471574078201      -0.8760631008743616
0                         0                        16.076652926639625       -0.4993454016165467      -0.3448921018627118      0.2757517767191153       -0.6815250030555529
0                         0                        16.73657796033587        -0.4988948906173283      -0.23352804707585406     0.6898043890699199       -0.4790441708787476
0                         0                        18.329494443967818       -0.49819150491048314     0.24553154065597838      0.65274722742096         -0.4040978068368588
0                         0                        18.372904915603897       -0.498174007166025       0.2585869662599265       0.6517373384022562       -0.4020553538620888
0                         0                        18.38276288267128        -0.49817004600372444     0.26155168769239623      0.6515080054253275       -0.4015915387179092
0                         0                        18.622151636750942       -0.49807525764580934     0.3335463459281911       0.6459389326911662       -0.3903283514164002
0                         0                        17.902478375078037       -0.49836835075956115     0.11710915064429983      0.6626812093052905       -0.4241888173069981
0                         0                        18.004384995747326       -0.49832536741566996     0.1477569242008876       0.6603104823061798       -0.41939413361235367
0                         0                        17.248092706600094       -0.4986560076841033      -0.0796932126811114      0.6779046536895512       -0.4549775165498957
0                         0                        16.737867917666055       -0.4988942727099339      -0.2331401005430216      0.68977437986495         -0.4789834786750795
0                         0                        18.163271004233945       -0.4982593254360386      0.19554088933917058      0.6566142028334596       -0.41191858247356805
0                         0                        16.737228848080782       -0.49889457882331484     -0.2333322966909428      0.6897892470001423       -0.47901354675611074
0                         0                        18.667024732817872       -0.4980577897737897      0.3470416466064066       0.6448950175884391       -0.3882170822895503
0                         0                        19.157355810591092       -0.497873090834427       0.2720783485451008       0.4199441090252094       -0.402661737089268
0                         0                        19.52060285271695        -0.49773269989601326     0.4125460949420727       0.4415355782702477       -0.37031600055212266
0                         0                        20.111772459406254       -0.49727707459158227     0.8781456128323626       0.6435545188616842       -0.8009736652435393
0                         0                        20.36440131422156        -0.49707949341499        0.8149316286877735       0.49620211448402785      -0.7632275162610682
0                         0                        20.437128242330324       -0.49702438136155        0.7967335535561801       0.4537822265117555       -0.7523611349626194
0                         0                        20.650597675898158       -0.4968671795818738      0.7433182245797028       0.329270581472926        -0.7204659302420175
0                         0                        21.20304194253351        -0.49649196240364935     0.6050830133353386       0.007042975949065777     -0.637923325961232
0                         0                        21.490931006755364       -0.49631450295616053     0.7387791447694347       -0.2650010065574282      -0.4161932014337246
0                         0                        20.75636763776072        -0.496791811693325       0.7168519656203713       0.2675774775605504       -0.7046624752437936
0                         0                        19.621520177376706       -0.49768770931856376     0.41659856888280444      0.406828350905613        -0.45953017834512266
0                         0                        20.07655729039821        -0.4973053736589921      0.8869573185931614       0.664094689649815        -0.806235285167304
0                         0                        21.612783039876806       -0.4962622200455217      0.7356687966460234       -0.2824835053406787      -0.4419444807956765
0                         0                        22.111944289863207       -0.4960152904925686      0.7229273985967932       -0.35409975762603096     -0.5474334124596112
0                         0                        22.140969808603536       -0.4959993119320694      0.722186504370919        -0.35826414112501226     -0.5535674442239724
0                         0                        24.086382832222732       -0.4951123192954755      1.4047599170413232       -0.6669934730323135      -0.3949195304229711
0                         0                        24.50269949983526        -0.4949533441584222      1.5514845174785665       -0.7354926473813448      -0.36880265233224163
0                         0                        22.165803770246665       -0.49598649307407666     0.7278804706995601       -0.3509886376462248      -0.5154036069141341
0                         0                        22.998437105471723       -0.4955790966331748      1.0213296715738451       -0.48798698634429627     -0.4631698507327968
0                         0                        24.62810406679401        -0.49490758790226974     1.5956814867846318       -0.7561262418649957      -0.36093562215528774
0                         0                        24.71829786566704        -0.4948752889121959      1.6274689460217613       -0.7709663893653254      -0.3552774762463198
0                         0                        23.114615583947728       -0.49552570963342785     1.0622750435944752       -0.5071025550251846      -0.4558816026390673
0                         0                        23.429633837135288       -0.49538521131905733     1.1732985286604034       -0.5589344703119963      -0.4361194985608421
0                         0                        26.006961894198795       -0.49446954471148524     0.1653187475929485       0.8076045801840337       -2.8500768051236562
0                         0                        28.290185223343222       -0.4917492445904511      -0.7464543715856422      -0.258930588670097       -1.2371258473048297
0                         0                        29.43179688791543        -0.4903108436739689      -0.24193992896540095     -0.2715179905173386      0.06951379757619236
0                         0                        27.148573558771012       -0.4931354782696229      -0.45583302071035803     -0.6259341844207142      -1.1914297153111004
0                         0                        31.99617734156711        -0.4865113492971765      1.0103976810451725       -0.7597327974476249      -1.1780563370399175
0                         0                        32.037650000794905       -0.48646269578931456     1.0303531585798875       -0.7558159410053129      -1.1682368000723429
0                         0                        30.713987114741272       -0.4882164690523759      0.39344379520461636      -0.8808283612186756      -1.4816422311212705
0                         0                        30.73472344435517        -0.4881857961359904      0.40342153397199         -0.878869932997489       -1.4767324626375569
0                         0                        31.66088612082398        -0.48691965018536776     0.8490649729978377       -0.7913991434810441      -1.2574436876040593
0                         0                        31.692156597770097       -0.48688044508408873     0.8641114472730758       -0.7884458250451623      -1.2500397349740453
0                         0                        30.5463415043697         -0.4884681871037749      0.3127774411809252       -0.8966615342353634      -1.5213359064033227
0                         0                        30.561976742842763       -0.488444429594722       0.32030067831868436      -0.8951848750174065      -1.517633930088408
0                         0                        31.704131984461377       -0.4868654923525581      0.8698736666372624       -0.7873148179821428      -1.2472043066580483
0                         0                        30.564552007714187       -0.4884405220705066      0.3215398233661215       -0.894941655918629       -1.5170241811820517
0                         0                        32.77543073727825        -0.4856652329187482      1.2874086172708417       -1.3474714188847656      0.5397503879403018
0                         0                        32.8763494921379         -0.4857148885021889      0.7554793642463835       -1.3329400300163314      0.30106804939835285
0                         0                        33.12861669385399        -0.4858182329830339      0.2836309238416277       -1.3768428891268485      0.5182574922652208
0                         0                        33.45187903823565        -0.4853002420124693      0.7523227586697772       -1.862308371901701       -1.557416001707196
0                         0                        33.8607630436557         -0.48448929611160585     2.0276799744280636       -2.3673995250657356      -2.1386143115816765
0                         0                        34.9034825677628         -0.4838510895412462      0.33216707855283545      -0.6153907331474855      -0.3298554471605222
0                         0                        34.992453588127134       -0.4838238843289828      0.32740175661703574      -0.5942718131528295      -0.28169676729948634
0                         0                        33.88863235072353        -0.4844645838040095      0.3865228449719069       -0.8562842336648444      -0.8791786594742561
0                         0                        34.04005241499996        -0.48433766381597027     0.37841272831951756      -0.8203418761428907      -0.7972172481049213
0                         0                        35.50848609250645        -0.48375058891066725     0.29976285798758084      -0.4717819380229784      -0.0023761067680396764
0                         0                        35.5204910172147         -0.4837505993901999      0.29911986962113346      -0.4689323467356452      0.004121979051667779
0                         0                        34.12370734979625        -0.4842728666554061      0.37393213796314484      -0.800484827545624       -0.7519360856863884
0                         0                        35.91833278480205        -0.48379507605972427     0.4736794587647637       -0.08823949303308964     -0.7664669901922707
0                         0                        34.22082178197504        -0.4842023952965159      0.3687306517705764       -0.7774329178888806      -0.6993694990603672
0                         0                        35.921589001327774       -0.4837926084649007      0.47320219107626826      -0.0917851068511446      -0.7491538563486131
0                         0                        35.943353059751324       -0.4837775630872446      0.8602454115228397       0.19324215302513892      0.3433030522418523
0                         0                        36.636483705723684       -0.4839336753573669      0.6259847385006765       0.07777332284436511      0.10715248894545937
0                         0                        36.79135973502859        -0.48394618457824734     0.5736405475882549       0.05197248135687005      0.0543860129946907
0                         0                        37.042509934569544       -0.4841571156729033      0.9529419733009377       -0.6343283371895154      0.9160503643933566
0                         0                        37.070959116667154       -0.4841834220862651      -0.2528506671308932      -0.8614381973145484      0.24883796927815638
0                         0                        36.95996632688177        -0.4840835685278848      0.8749478586202031       -0.6436753495822174      0.8659687907821763
0                         0                        36.86496995913086        -0.4840040422919588      0.7851873331456432       -0.6544324784681947      0.8083317705745117
0                         0                        36.93327875830334        -0.48406067399045843     0.8497312083845259       -0.6466973768622566      0.8497766776954734
0                         0                        37.843423952138245       -0.48444949672482224     -0.07935644763800553     -1.0457342290957001      0.4400597677809799
0                         0                        38.48584386555061        -0.48478328173933594     0.06492991511439428      -1.199003912506928       0.5990892608994187
0                         0                        38.50997485039691        -0.4847978104272376      0.07034969112131151      -1.2047611257106468      0.6050628277338426
0                         0                        38.78682714983006        -0.48497481037619533     0.13253022206510456      -1.270813038797097       0.6735969437043856
0                         0                        37.62317216703962        -0.4843585771469676      -0.12882460436571108     -0.9931861672002427      0.38553697200300974
0                         0                        38.83327677169546        -0.48500636574980777     0.14296272400075205      -1.281895072042511       0.6850954350595675
0                         0                        38.896606421417914       -0.4850502490164054      0.1571864499813026       -1.2970043723004903      0.7007725364141579
0                         0                        39.24552684263386        -0.48530983176185954     0.2355533520903208       -1.3802504258224033      0.7871469413261245
0                         0                        39.41131192196765        -0.48544373086449766     0.21788490429453589      -1.353486389731934       0.8013278722261603
0                         0                        39.88406641269114        -0.4858614032839788      0.21559577265736607      -1.2903091183931394      0.4669705683557215
0                         0                        40.06339083719535        -0.4859403501885348      0.2185439755456855       -1.3496655149863699      0.41352192199203586
0                         0                        41.06776926872931        -0.4867170787987373      0.4165947588036438       -1.6343395660127804      0.834500930687776
0                         0                        41.085972845724235       -0.4867322898783897      0.42187125389767033      -1.6412231348591604      0.8367178255600312
0                         0                        41.307007282067914       -0.48692020827160076     0.485940371704511        -1.7248059252320052      0.8636361674147346
0                         0                        40.80398604205369        -0.48650118839454726     0.34013446191529795      -1.5345915878069611      0.802376492574691
0                         0                        40.943801729965614       -0.4866145635534854      0.38066148534330324      -1.587462016175035       0.8194037329726704
0                         0                        41.41757847125248        -0.487016446011302       0.5179905746642319       -1.7666177292195624      0.877101911119579
0                         0                        42.037469296373786       -0.4875835519800792      0.6976723426233136       -2.001025569677701       0.9525943702097166
0                         0                        42.10855485425309        -0.48765157537780096     0.7182772269006463       -2.0279061290199785      0.9612514165034263
0                         0                        43.13113686278198        -0.4886982066867682      -0.20997392089731903     0.6791806047450564       0.11284328688651613
0                         0                        40.42794408184596        -0.4862080717172579      0.23113480988190815      -1.3923936712678682      0.7565807957411153
0                         0                        46.119984888507226       -0.49314953556717217     1.6484829716484661       -2.452420331008142       1.522066728688337
0                         0                        46.451930934326704       -0.49365598712902775     1.6727271735415528       -2.358889289703015       1.529342186910938
0                         0                        44.6255608756446         -0.4908993968128057      1.539335361854441        -2.8734979001937546      1.489312551889867
0                         0                        44.79153389855434        -0.49114688440154874     1.5514574628011388       -2.82673237954117        1.492950281001157
0                         0                        45.98869827523745        -0.4929498974689217      1.6388942472215646       -2.4894124078930453      1.5191892421749102
0                         0                        45.649715320834645       -0.4924361774804993      1.614136093634908        -2.5849262093354426      1.5117595518564446
0                         0                        44.52864705368887        -0.49075516476949627     1.532257108339195        -2.9008049002276124      1.4871884342156818
0                         0                        44.390426091808315       -0.4905498135218015      1.522161922847701        -2.9397508393574867      1.4841589634739307
0                         0                        45.45405153048132        -0.4921408004265337      1.599845480758919        -2.640057572663629       1.5074710725981149
0                         0                        44.292594196631654       -0.4904047203251748      1.5150166164098664       -2.9673165210216155      1.4820147238447419
0                         0                        46.61550886433101        -0.49390644699084507     1.807886429644995        -2.1373131354192196      1.8236370735427556
0                         0                        47.02683253492455        -0.49452362321581195     1.4859956905042822       -2.171356888369516       1.1103596903727109
0                         0                        47.04791709338541        -0.4945470417234337      1.5107332254819141       -2.1778813490869027      1.1110297369192565
0                         0                        47.153175437380824       -0.49466416291860615     1.6342279607929662       -2.2104527653607846      1.1143747436461595
0                         0                        48.852077384667325       -0.4971598358680081      1.860220305033863        -1.1796747671152872      1.395888391821728
0                         0                        49.02461806938384        -0.4973994023982638      1.8945027600970974       -1.0705590560655782      1.3810396196713208
0                         0                        47.72334791911939        -0.4955294342820779      1.6359507813284893       -1.893489705419384       1.493026331669733
0                         0                        48.068429288552416       -0.496039525818582       1.7045156914548159       -1.67525828332019        1.4633287873689955
0                         0                        49.0382630459371         -0.4974182386399789      1.8972139078839234       -1.0619298952314828      1.3798653392505957
0                         0                        48.09571924165897        -0.4960794279465113      1.70993798702888         -1.657999961651786       1.4609802265276026
0                         0                        49.98080685021526        -0.49868059499900885     1.8949457785474308       -1.2521014945423872      0.5818669786649053
0                         0                        48.15313903308585        -0.4961631752558476      1.721346840671373        -1.6216873587421432      1.4560387056265038
0                         0                        54.74680329052031        -0.49852423815171565     2.6178995146904804       0.3618492574273066       -1.1293792456467517
0                         0                        54.81305507023531        -0.4984484048658774      2.6197966914737556       0.3833386895752855       -1.1598659992238298
0                         0                        52.36380507036778        -0.4999089817296656      2.5496603078734736       -0.4111002207731991      -0.03280674865198563
0                         0                        52.39693096022528        -0.4999076425017131      2.5506088962651603       -0.40035550469920533     -0.048050125440493474
0                         0                        53.48159654481848        -0.4995848322242433      2.5816692296419816       -0.04853329579313925     -0.54717531925853
0                         0                        51.73120169751686        -0.49983765934763513     2.5315451653492005       -0.6162914973834646      0.258295214542132
0                         0                        53.44669257201593        -0.49960365051008243     2.5806697243134593       -0.059854750982094806    -0.5311137308413185
0                         0                        51.71374971111559        -0.49983308150640793     2.5310454126849606       -0.6219522249778304      0.2663260087507471
0                         0                        55.17963543291626        -0.49799230201003253     2.630294035941997        0.5022427230137736       -1.3285534704333446
0                         0                        55.197940460211775       -0.49793824939153325     2.5840884272137146       1.1382597638756473       -2.9068258622633536
0                         0                        55.199497336185644       -0.49793372992295587     2.8503283120871927       1.697191935627913        -1.0784750413466355
0                         0                        55.51881205867525        -0.49758059731500076     2.64537918816176         1.6613126189944332       -1.1333403438111276
0                         0                        55.5590682510722         -0.49753483412403        2.6195411331543514       1.6567892927218146       -1.140257244336965
0                         0                        57.316256112734074       -0.4952659197119176      1.491706782103087        1.4593455319656528       -1.4421808223208927
0                         0                        57.33638420893256        -0.49523685655158056     1.4787877545993808       1.4570838688292724       -1.4456392725838327
0                         0                        56.48260234894426        -0.4964084928672463      2.0267795379529217       1.553017778332956        -1.2989407438667442
0                         0                        57.7981512578686         -0.4945509892680305      1.182406956998637        1.4051981116349452       -1.524981022348669
0                         0                        56.50423161305476        -0.49638035754350823     2.01289700007288         1.5505874387308989       -1.3026571278412646
0                         0                        57.808965889923876       -0.494534487111551       1.1754656880586651       1.4039829418339451       -1.5268392143359506
0                         0                        55.20416608103385        -0.49792869292554487     2.8473317225187884       1.6966673391628575       -1.0792772345440937
0                         0                        56.531624882572174       -0.4963446090388472      1.9953148900302473       1.547509435364823        -1.3073638949012576
0                         0                        59.11370016679298        -0.49239611862708416     0.4676483625226737       -1.9173542627594884      -1.3579034908479315
0                         0                        60.97794255667006        -0.48817802129282845     -1.068365508931862       -2.2612234438975216      -2.105748201998738
0                         0                        60.97911645022659        -0.48817554948455005     -1.0685249872154223      -2.2621628300130245      -2.1055506239655557
0                         0                        60.99026731878907        -0.4881520812302813      -1.0700398787226106      -2.2710861016716968      -2.103673821194887
0                         0                        60.04582136173153        -0.4902139518915357      -0.9417329982915632      -1.5153110878686586      -2.262633527249495
0                         0                        60.1218751071768         -0.490042356904251       -0.9520652134387504      -1.5761716591740758      -2.249832920788137
0                         0                        61.13005004756056        -0.4878596682855058      -1.089029939226073       -2.382944586508546       -2.080146989076038
0                         0                        60.742846356165444       -0.48867772596020126     -1.0364267199915513      -2.073092156073503       -2.145317245253742
0                         0                        61.29233322140918        -0.48752431172179356     -1.111076778039255       -2.5128086269429675      -2.0528331068788965
0                         0                        60.97677013963055        -0.4881804902235777      -1.0682062312390563      -2.2602852393369033      -2.105945531519442
0                         0                        61.50927810037315        -0.4870829208539137      -1.1405496350485933      -2.686414663019711       -2.0163191126874764
0                         0                        61.91006375160857        -0.4862883268309624      -1.1949980195721395      -3.0071357999265267      -1.9488628767479312