% Model:              AluminaWithRodsOriginalRydberg.mph
% Version:            COMSOL 5.5.0.292
% Date:               Mar 10 2026, 10:24
% Dimension:          3
% Nodes:              554
% Expressions:        4
% Description:        Electric potential, Electric field, x component, Electric field, y component, Electric field, z component
% Length unit:        mm
% x                       y                        z                        V (V) @ Length=0.163     es.Ex (V/m) @ Length=0.163 es.Ey (V/m) @ Length=0.163 es.Ez (V/m) @ Length=0.163
0                         0                        1.9286968240785323       -0.45284974018943636     -2.5738188384668916      -3.0106464669443085      7.164240518019085
0                         0                        3.2021932915977747       -0.46039641447737245     -2.6426443815291165      -2.4498078308928157      7.0386399028415525
0                         0                        0.6552003565592898       -0.4421491444930617      -2.675554991217311       -2.1833200301505578      9.640824857968333
0                         0                        0                        -0.4354150522447106      -2.727897157259484       -1.7576693980498277      10.915001099497246
0                         0                        4.527062380452598        -0.46669739444921365     -1.6469814744915254      -2.209186190101537       4.026893748980825
0                         0                        5.851931469307422        -0.47106662858162746     -1.3356585442394078      -1.1905048971772203      2.568828302607585
0                         0                        7.1768005581622445       -0.473504116874614       1.4838480237945646       -3.4446881368698143      -0.4642666976847636
0                         0                        8.395214944319667        -0.47544870232834485     -1.338411307746128       -0.6912060886277024      1.5116344838831703
0                         0                        8.408069771205769        -0.4754681226863724      -1.3328081290304397      -0.6825153517151294      1.5098543622742642
0                         0                        9.613629330477087        -0.47718771127816384     -0.8073272553307618      0.1325248705189841       1.342909864207503
0                         0                        9.639338984249296        -0.47722219125950965     -0.7961208978990442      0.14990634434403943      1.3393496209898013
0                         0                        8.368551906263413        -0.47540834833704915     -1.350033227563813       -0.7092321150448782      1.5153267506575694
0                         0                        8.393329209274404        -0.4754458515400077      -1.3392332643981035      -0.6924809737206475      1.5118956182984356
0                         0                        9.560303254364579        -0.4771159022704339      -0.8305710949663023      0.09647281768469163      1.350294397756298
0                         0                        9.609118037810143        -0.4771816516095967      -0.8092936434647413      0.12947492997501187      1.3435345828156882
0                         0                        8.410381870736678        -0.47547161324979487     -1.3318003280699884      -0.6809522152439254      1.5095341853965265
0                         0                        8.436551522000228        -0.4755110698143331      -1.3203934663312964      -0.6632597518414955      1.5059102422564439
0                         0                        9.644796109862208        -0.4772294981966656      -0.7937422388663151      0.15359573226193846      1.3385939245255405
0                         0                        9.696302485838215        -0.4772982606328859      -0.7712915725007576      0.18841754409128386      1.3314613809540776
0                         0                        10.752054602465744       -0.4786267786747681      -0.3111089623682801      0.902177750414486        1.1852620448549995
0                         0                        10.920267676920469       -0.47884987464122        -0.21072860291558015     0.8290609783749971       1.3741074990429496
0                         0                        10.98164523270767        -0.47895544306875504     -0.57629815949349        1.1309045776782796       1.749801505880498
0                         0                        10.998799752632022       -0.47898560303391        -0.947729191703047       0.4942458685053026       0.8201938855984565
0                         0                        13.595973710086776       -0.4823069655777134      -0.01629828714723658     0.8916382222501511       1.3708580574909348
0                         0                        13.7873837806521         -0.48257033947566486     -0.04427178391608777     0.9039415366353722       1.381075497242506
0                         0                        13.36189835467376        -0.4819875438654681      0.017910499146069014     0.8765925003662858       1.3583631514798924
0                         0                        13.850483635648219       -0.482657591407652       -0.11729386692853438     0.8450063745212901       1.5127919510492123
0                         0                        12.200382759359675       -0.48044579174803337     0.18765941913087403      0.801933463408055        1.2963616299260616
0                         0                        12.300049876659353       -0.48057526149992214     0.17309363491933283      0.8083397923665405       1.301681845122852
0                         0                        12.524833053456867       -0.48086920625466273     0.14024284785624275      0.8227882384930894       1.3136807360867948
0                         0                        11.82137175574283        -0.47995829041534444     0.24304972881397902      0.7775716755501385       1.2761300815898302
0                         0                        12.835927695695524       -0.48128046834063615     0.0947781293917842       0.8427845489052572       1.330286919631675
0                         0                        11.149642925219966       -0.4791131200646054      0.34121908957327207      0.7343947885706399       1.2402733012487346
0                         0                        11.038207234451344       -0.47901818391470063     -0.9381651929454051      0.4980224433504077       0.8333439344665621
0                         0                        13.92939882265355        -0.4827773816566618      -0.09144608999351078     0.8609126476235929       1.5231318946777426
0                         0                        14.077362141097415       -0.48300418359206676     -0.042982378573242386    0.8907363741028576       1.54251894082034
0                         0                        14.078605717106345       -0.4830061019329297      -0.012631353798482792    0.9468644012971623       1.6209746669716978
0                         0                        14.315415571971194       -0.48337926249699165     -0.04438222238516687     0.9138968223030446       1.5305881282073805
0                         0                        14.381622353388524       -0.4834797612856063      -0.05325906079866627     0.9046798186543299       1.5053180573378029
0                         0                        15.099303892473857       -0.48446180388252236     -0.1494839930236509      0.8047674951327224       1.2313904782259542
0                         0                        14.108866939345857       -0.48305497984560664     -0.016688702219099127    0.9426515730969669       1.609424441840396
0                         0                        14.082490622183931       -0.48301239638536325     -0.013152232081509396    0.9463235626774917       1.619491860761638
0                         0                        15.13319828802856        -0.48450332187343415     0.13611717512641874      0.6366901043399196       0.9022067389052921
0                         0                        15.20201672160807        -0.4845640212512736      0.09138379090292759      0.5697020732974849       0.8618374185165436
0                         0                        15.555271100933863       -0.48483186819330876     -0.29934491379532346     0.8385943755118141       1.0510319085694242
0                         0                        15.565696882846652       -0.4848428163646974      -0.3048203836610526      0.839092674468283        1.0491791797335566
0                         0                        15.579569417403153       -0.4848573540395673      -0.312106038162586       0.8397557105411799       1.046713940673726
0                         0                        15.92298657641111        -0.4852063346308007      -0.49246376300681227     0.8561692911666021       0.985686491742889
0                         0                        16.246872246419066       -0.4855162634853299      -0.662563832324981       0.8716493666915          0.9281299146548854
0                         0                        16.398387083838276       -0.4856548491573807      -0.7421372334795038      0.8788909995997258       0.9012047486860517
0                         0                        15.561170176621697       -0.4848380652180758      -0.3024430230243098      0.8388763211044257       1.0499836046893414
0                         0                        16.411526114127273       -0.48566667477477127     -0.7490376621488792      0.8795189779266295       0.8988698580758232
0                         0                        17.83671793413319        -0.48664416079118156     -1.4506973701786041      1.0990461088204446       0.7650957666646505
0                         0                        18.33370822174452        -0.4870381377900676      -1.7266357991444643      1.1491591774108656       0.8203557349311179
0                         0                        18.33595743811177        -0.4870399832288653      -1.727884606709214       1.149385972857175        0.8206058235710394
0                         0                        17.54458462446019        -0.48642539538116436     -1.2884994187716954      1.0695894032263742       0.7326136883936745
0                         0                        17.698911140147946       -0.4865397811778509      -1.3741844257993332      1.0851506233523462       0.749773135111595
0                         0                        16.985599553960043       -0.486033246600144       -0.9781403111310372      1.01322520883991         0.6704605678453408
0                         0                        16.43783928712916        -0.48568267562197276     -0.6740134272725165      0.9579928461417389       0.6095555245935547
0                         0                        18.98629616616862        -0.4875971681888814      -2.0889649967869772      1.2149616392205829       0.8929164871205728
0                         0                        20.2736811921893         -0.48883883580786286     -6.691120032433808       3.9599176202394233       -1.0499443080573272
0                         0                        22.12566732960611        -0.4888677324056737      -4.538282466118053       1.0526331145217043       0.1493857138920518
0                         0                        22.165502718380516       -0.4888737978741906      -4.576583511610176       1.0608448082890547       0.15514092454038675
0                         0                        22.112648340981945       -0.48886579979857625     -4.525764931059376       1.049949371472465        0.14750479784566295
0                         0                        21.93610645993697        -0.4888420104500523      -4.356022929657615       1.0135569096722978       0.12199894124621924
0                         0                        22.244848343907496       -0.48888656241500106     -4.652872974482824       1.0772011687680347       0.1666043695569961
0                         0                        22.33114107233163        -0.4889014770717965      -4.735841958060011       1.0949896096988994       0.1790714960186115
0                         0                        21.886579100436318       -0.48883614536006087     -4.308403219954669       1.0033473065571687       0.11484348486557883
0                         0                        21.259264768048396       -0.48879252949806545     -3.7052512106001423      0.8740323092154938       0.024212359208817702
0                         0                        21.19316476658562        -0.488791244681516       -3.6416971888885463      0.8604064105676201       0.014662573353124486
0                         0                        22.4005402408202         -0.48891425239775643     -4.8025680724819075      1.1092956008508992       0.18909792843859208
0                         0                        23.032131915378272       -0.4890625011590434      -5.409832673230277       1.2394923323770684       0.2803470223382547
0                         0                        23.89772874728516        -0.4886962977336592      -5.362622897971235       1.4161999181550122       -0.30182998927485727
0                         0                        23.955536484941977       -0.48867935468684576     -5.377211052090548       1.4459086188932755       -0.28435613390917425
0                         0                        24.743991149275505       -0.48854910913492067     -5.576182653913918       1.851113261347983        -0.04602570747488244
0                         0                        25.001778567089048       -0.4885472880437194      -5.641236965559926       1.9835960320000652       0.03189707996762081
0                         0                        23.78381417066129        -0.48873264181192805     -5.333875822448356       1.357656646893762        -0.33626356022325155
0                         0                        24.169106529043685       -0.48862551845165175     -5.4311068253019155      1.5556670834872381       -0.21979916952448342
0                         0                        23.744745049492238       -0.4887460100297007      -5.324016478630142       1.3375781439811085       -0.34807319333193476
0                         0                        24.146675824202795       -0.4886305247448367      -5.425446292776604       1.5441394381498164       -0.22657941915931445
0                         0                        25.068070646268403       -0.48855006676315327     -6.2085534433521445      1.6492473691323113       -0.5968743133285557
0                         0                        23.653101318714715       -0.4887791780966664      -5.309632714876692       1.3051832404314103       -0.37193176797956085
0                         0                        25.127499139298756       -0.4885179264206876      -6.086966382936225       1.6577515082277898       -0.4847732542488785
0                         0                        25.644391570230386       -0.48851934197913655     -5.029436096981378       1.7317181344346722       0.49025044201192003
0                         0                        23.385107879813983       -0.488888606578229       -5.252436335653414       1.2186846831941578       -0.4447186844447799
0                         0                        25.880898886133835       -0.48898181159214005     -5.372098713137984       2.052539044515754        1.8453183514157132
0                         0                        26.05069639113227        -0.4890551909762885      -6.675365223303885       2.869934723090296        0.7033937283414531
0                         0                        26.243076749875726       -0.48924963042804354     -6.472304967278546       2.6162869500719097       1.3180127502115795
0                         0                        28.235220778670236       -0.492048454342653       -4.414669671221219       3.167112994321654        2.0445046086587553
0                         0                        28.34499528972648        -0.4922767576086369      -4.314877507150264       3.1784206107430792       2.114990410486051
0                         0                        27.074486997688613       -0.4901078778507581      -5.469852106559443       3.0475485140396046       1.2992018013567304
0                         0                        27.294036019801105       -0.49040859142463666     -5.270267778417537       3.070163746882372        1.4401734050112225
0                         0                        28.17910634148728        -0.49193473904320595     -4.465681341127329       3.161332776990255        2.008473739007286
0                         0                        28.089038834186113       -0.49175644521248346     -4.5475585581567906      3.152055133074592        1.9506417303778534
0                         0                        26.919867838975826       -0.4899146716857967      -5.610410969507743       3.031621555028039        1.1999214194642605
0                         0                        26.782123108720366       -0.48975548027568283     -5.735629880430707       3.017432791545417        1.1114760447948413
0                         0                        29.395954559651855       -0.4948541289800436      -2.7628668088351986      2.812610284262721        3.3078427640321166
0                         0                        32.05661762516177        -0.5049109699075622      0.547747391092912        2.394205158793909        4.4666294202787995
0                         0                        33.38694915791673        -0.5113099066200744      1.9855623936691167       1.8225722560461506       4.744595998204574
0                         0                        30.726286092406816       -0.49942571069421876     -1.1053128173721944      3.0560729058265323       3.7798250586047004
0                         0                        34.7172806906717         -0.517251333644089       2.7575172592825368       1.5776445382036002       4.10609553859668
0                         0                        36.04761222342664        -0.5222348433630736      3.539119413879604        1.3388995582542123       3.386036454492756
0                         0                        37.37794375618161        -0.5262604357770281      3.519849849722914        -0.5586991126720449      2.907044272853426
0                         0                        40.038606821691516       -0.5316032833708864      2.0136787927126534       -1.2358107946478967      1.3070015342650834
0                         0                        41.368938354446485       -0.5328756895040101      1.5368203543679329       -1.911349297788263       0.5941249272612765
0                         0                        38.70827528893656        -0.5293981987952256      2.485359602441399        -0.5690399171795413      2.008088759195907
0                         0                        42.699269887201446       -0.532462213720441       1.4399988244040145       -2.596836736464752       -0.4019583769368677
0                         0                        44.02960141995641        -0.5318062136966215      0.9977150151729504       -3.0907810757958316      -0.5842619864353363
0                         0                        45.359932952711375       -0.530907689432551       0.6646118149304243       -3.4535177010866107      -0.5614121477390768
0                         0                        46.05145362656032        -0.5299092484154619      2.018296337378743        -5.339162005608415       -1.5675340032138827
0                         0                        46.13041408908328        -0.5297843599249916      1.9491597634740856       -5.307237501015464       -1.595783091943055
0                         0                        46.742974300409266       -0.5287397250921835      1.4128114067371627       -5.059573282051389       -1.8149341355005397
0                         0                        46.9008952254552         -0.5284486478923841      1.2745382589278478       -4.995724272865914       -1.8714323129587953
0                         0                        46.150005747855694       -0.5297530272266447      1.9320056065536306       -5.299316397459705       -1.6027922518356092
0                         0                        46.94007854300001        -0.5283750443236639      1.2402299450869094       -4.9798820657544525      -1.8854506327437601
0                         0                        46.25478105266751        -0.5295831304460453      1.840265951376125        -5.256954693984426       -1.6402769218549942
0                         0                        47.14962915262365        -0.5279720920587032      1.0567506347321824       -4.895158658803908       -1.960419972782633
0                         0                        46.56998815854312        -0.529048330667489       1.5642754280899709       -5.129513309047624       -1.7530461891239497
0                         0                        47.39334361038134        -0.5274836844069211      0.8433579812192704       -4.796622466418754       -2.047611854919378
0                         0                        47.434494974258214       -0.5273991194627163      0.8073264760956533       -4.779984558494526       -2.062334267787131
0                         0                        47.87182759138584        -0.5271037374822156      -0.39431992890120826     -4.020985831294624       -0.18328449219831455
0                         0                        48.28801963759621        -0.5269670301852921      -0.5230974466466733      -5.414801907835972       -1.9640930253171263
0                         0                        49.891170926856326       -0.524681666098445       -0.6645910179611292      -3.7588939205752006      -0.7058134657623434
0                         0                        50.02979727482261        -0.5245891799084555      -0.649184894561742       -3.7413622001153897      -0.6285099344637928
0                         0                        50.34711659954517        -0.5244178163557672      -0.6139198764363414      -3.7012316349002177      -0.4515601358851704
0                         0                        50.518128764759126       -0.5243487482080013      -0.5949145822860089      -3.679604162780006       -0.3561969927310109
0                         0                        49.30363961766423        -0.5251926002498393      -0.8767875201128135      -5.321857849925713       -1.5301862726030597
0                         0                        50.8019048419937         -0.5242701210609969      -0.5633773649545901      -3.6437157264740563      -0.19795223486130453
0                         0                        50.898456994049376       -0.5242536075932418      -1.7909494311411365      -4.055072347806465       -0.5836126851426826
0                         0                        49.10320506000463        -0.5255078842978897      -0.8069861034263965      -5.340200538628231       -1.6158186053185437
0                         0                        49.18244830169952        -0.5253811829977584      -0.8345825947585581      -5.332948624930502       -1.5819632476521432
0                         0                        48.664683907008566       -0.5262575335960595      -0.6542709325321638      -5.380331627262585       -1.8031694779157874
0                         0                        49.212887529940225       -0.525333227183214       -0.8451830684436032      -5.330162991083242       -1.5689585934111836
0                         0                        48.336597251790394       -0.5268721233214373      -0.5400146206589298      -5.41035634682374        -1.9433390472117926
0                         0                        51.03611642432915        -0.5241759274124383      -1.8902862352465348      -4.061247058983682       -0.5449722675318753
0                         0                        51.32671472512201        -0.5239331573995635      -1.7716605888528036      -4.263656073497977       -0.8274394654788324
0                         0                        51.750381048902085       -0.5236685194898311      -3.157251978039085       -4.363104377181841       -0.590144967896439
0                         0                        51.300092578983616       -0.5239552050640249      -1.7693173232148496      -4.25857543007605        -0.8289006618048518
0                         0                        53.393481872020004       -0.5231001580715987      -2.6945491698049295      -4.622264823524796       -0.061185463785272454
0                         0                        53.55444409333161        -0.5230947990987792      -2.648724447024307       -4.649484789668886       -0.005401251731365964
0                         0                        52.30475742386605        -0.5233721688061386      -3.0045007572917086      -4.438153033953222       -0.43850155068598307
0                         0                        52.626681866489264       -0.5232489627402173      -2.9128513117308046      -4.492592966241629       -0.3269331265780422
0                         0                        53.57159789641666        -0.5230947574359694      -2.643840889475001       -4.6523856314652         5.436922501531605E-4
0                         0                        52.66098947265937        -0.5232379504040636      -2.9030841966326193      -4.498394649834305       -0.31504323861514516
0                         0                        53.36887047666215        -0.5231017688926887      -2.70155584727425        -4.618102844751461       -0.06971496397728494
0                         0                        52.25553463315036        -0.5233941729219991      -3.0185141122309744      -4.429829076406776       -0.45556055106993787
0                         0                        54.48220632017396        -0.5232389405855491      -1.4217446313255806      -6.392912663866326       -0.6865876101807906
0                         0                        52.99921571981           -0.5231512176296926      -2.806793751045717       -4.555591344322633       -0.19782514520466865
0                         0                        51.83569112799544        -0.5236159815049176      -3.1380403717355705      -4.358830267474723       -0.6010645018117695
0                         0                        57.55346472260213        -0.5237096704361504      -1.1740187001741873      -5.550221919374874       -0.09368206063521711
0                         0                        57.82423229301696        -0.5236784093086571      -1.2131759862734484      -5.570321689502833       -0.1372254106352564
0                         0                        57.4074930540367         -0.5237216320670989      -1.1529088812262671      -5.539386068615947       -0.07020770052372782
0                         0                        57.188796177470046       -0.5237331405280523      -1.1212818434993075      -5.523151639433991       -0.03503807284024418
0                         0                        57.00052460188868        -0.5237368870709731      -1.0940547869572779      -5.509175758256571       -0.004761274558829243
0                         0                        56.756393578255064       -0.5237332571773465      -1.0587495680808625      -5.491053287206515       0.03449853263171976
0                         0                        56.87774536035392        -0.523736259538132       -1.0762989608793614      -5.500061540746935       0.014983407120365833
0                         0                        55.835501248822          -0.5236332989655688      -0.9255739283429065      -5.422693091390499       0.1825913672034929
0                         0                        58.54209110611811        -0.5235384652730002      -1.3169897586556374      -5.623610187477482       -0.25266751288398837
0                         0                        59.14657934042161        -0.5232086680051781      -0.6212680112494979      -6.007639842250242       -1.0552435151144266
0                         0                        59.43463225218439        -0.5229688197782423      -1.1659753478792965      -6.036807617587435       -0.6100632194572029
0                         0                        59.05758307207687        -0.5233087011043598      -0.45297629010917717     -5.998628223013284       -1.1927855549142805
0                         0                        59.09139106362023        -0.5232692586475557      -0.5169071176700584      -6.002051565953607       -1.1405359470948326
0                         0                        59.049773377958665       -0.5233180635251563      -1.2693383173308952      -5.621333244981997       -0.5018180245032848
0                         0                        59.64561575693378        -0.5228745043025504      -1.5649446283549011      -6.05817146851588        -0.28399222629034426
0                         0                        59.114206297381195       -0.5232436392916966      -0.5600506677230612      -6.004361799891242       -1.105275437319051
0                         0                        59.651473445465044       -0.522872867279213       -1.5760215027359692      -6.0587646086512095      -0.27493928009284474
0                         0                        59.735683797471545       -0.522855194344719       -1.7352630680352519      -6.067291613684262       -0.14479378295400913
0                         0                        59.12871000776111        -0.5232277712487097      -0.5874771478233924      -6.005830422316649       -1.0828602288228808
0                         0                        59.035398976667786       -0.5233252493115431      -1.2705535026798493      -5.620773415324948       -0.49798520087930953
0                         0                        59.02149334804219        -0.523332148328961       -1.2717290588528911      -5.620231842626183       -0.49427737188370635
0                         0                        59.017401104744536       -0.5233341687995664      -1.2720750095467572      -5.620072464916078       -0.4931862066609156
0                         0                        59.82809036582551        -0.5228792831135137      -1.8899009369602844      -5.929252030736038       0.10753593495761038