% Model:              AluminaWithRodsOriginalRydberg.mph
% Version:            COMSOL 5.5.0.292
% Date:               Mar 10 2026, 10:26
% Dimension:          3
% Nodes:              615
% Expressions:        4
% Description:        Electric potential, Electric field, x component, Electric field, y component, Electric field, z component
% Length unit:        mm
% x                       y                        z                        V (V) @ Length=0.175     es.Ex (V/m) @ Length=0.175 es.Ey (V/m) @ Length=0.175 es.Ez (V/m) @ Length=0.175
0                         0                        1.2175271098445186       -0.4639958000253506      -0.20395303026208467     -0.8185068649139922      9.483673491537138
0                         0                        1.2341285846238177       -0.4641529338787076      -0.20459796275756048     -0.8215398029985508      9.446434278521187
0                         0                        0.21757063007460783      -0.45339107348416446     -0.16510681710991548     -0.6358239327838291      11.726702671285798
0                         0                        0.2507735796332065       -0.45377919814973655     -0.16639668210089553     -0.6418898089526905      11.652224245253882
0                         0                        1.1353030522484442       -0.463208431249003       -0.200758797980626       -0.8034852792377336      9.668112478829617
0                         0                        0.0531225148824626       -0.4514323086886247      -0.15871835254696975     -0.6057807614313546      12.095580645870772
0                         0                        1.1151628921102226       -0.46301325898011264     -0.19997639497680098     -0.799805855600745       9.713289411815007
0                         0                        0.012842194606017062     -0.45094327508494997     -0.15715354653926283     -0.598421914157452       12.18593451184152
0                         0                        2.217483589614426        -0.4723575950039339      -0.2797394053902025      -0.7143638105997567      7.213777282900395
0                         0                        0                        -0.45078659597205556     -0.15665465419806424     -0.5960757622867341      12.214741182747758
0                         0                        4.43623995732512         -0.4838595213093225      -1.883076203248951       1.7904998665003617       3.6616118057526563
0                         0                        5.5456181411804675       -0.48707720811554917     -1.6938771147392657      1.6457118631067118       2.1392717036819704
0                         0                        3.326861773469774        -0.4789529836054508      -2.072275291758629       1.9352878698934717       5.183951907823143
0                         0                        6.654996325035818        -0.48835341015410993     0.9249549128159753       0.0017192809875647974    0.7336417577883196
0                         0                        7.764374508891169        -0.4887049804372602      1.3891476886252931       0.4113117523739973       -0.09982672831168315
0                         0                        8.873752692746521        -0.48813191896500047     0.8618789438406793       0.7493949354832665       -1.824524231580881
0                         0                        12.981971886829669       -0.48305217310602067     0.8577077877027826       -2.7462109441002642      -1.7285746746585176
0                         0                        13.190108893413896       -0.4826872036666245      0.7783270465754413       -2.8772211611290572      -1.7516208245130827
0                         0                        11.566258501480089       -0.48525926685566945     1.4064250779108889       -1.8788568145070528      -1.3894204965235417
0                         0                        11.75132349319144        -0.48499803134053016     1.334695615001801        -1.9922391463159572      -1.4337554345236327
0                         0                        11.963706418729673       -0.48468812321575905     1.252377975998178        -2.12235814457291        -1.4846347702043712
0                         0                        10.31253809296898        -0.4868129364399888      1.8923554027604457       -1.1107496644789485      -1.0890740286861842
0                         0                        10.927862289788091       -0.48609745048497516     1.6538614891108647       -1.4877355633711922      -1.2364836487536621
0                         0                        11.456215472552268       -0.48541071239831285     1.4490767284952226       -1.8114376062398652      -1.3630581314984056
0                         0                        13.59178385844756        -0.4819878677375291      0.5951434857875384       -2.940234280031852       -1.7304778372082268
0                         0                        13.782669132156856       -0.48165850397505605     0.5080904026133339       -2.970179577837648       -1.7204301985200914
0                         0                        13.376383883434706       -0.48236183372507657     0.693376479753617        -2.906443216563389       -1.7418158575819191
0                         0                        13.836632895506503       -0.48156573972882555     0.4834802695843159       -2.9786451914118075      -1.717589704930063
0                         0                        13.940468832143065       -0.48138767595683546     0.4361259700470619       -2.994934546714589       -1.712124087002124
0                         0                        14.086301336763325       -0.48113855233227604     0.3696191677805096       -3.017812151129789       -1.7044478934071563
0                         0                        15.051888410537158       -0.4799322827627602      -0.3610427101999605      -3.138028015839687       -1.0898002776949554
0                         0                        15.064547019811627       -0.4799216959280086      -0.4241734611374923      -2.971518568503882       -0.8383234839434692
0                         0                        15.07588370932872        -0.47991217192364943     -0.4273303401713946      -2.9744056677070034      -0.8418856008520947
0                         0                        15.410481809974595       -0.4796128896932077      -0.5584092397378981      -3.0337903115656033      -1.0626649514590625
0                         0                        14.564346846750627       -0.4805028596647404      -0.11210399251328163     -3.150516835689846       -1.250828478338283
0                         0                        14.25861756805962        -0.48090071053868305     0.044001374187266684     -3.1583483687693903      -1.351806608796073
0                         0                        14.417025770767435       -0.48069071724410756     -0.03688185256148113     -3.154290598820486       -1.2994865816559922
0                         0                        17.056609043943695       -0.4786715090208148      -2.2552552490089965      -2.847977239178377       -0.08108706596357251
0                         0                        17.135904716361576       -0.47866695386119046     -2.3369940979376764      -2.8390264289281504      -0.033803431469884515
0                         0                        16.255010769887463       -0.4789280859559617      -1.4289589553190005      -2.9384607905399998      -0.5590763262274425
0                         0                        16.273193263168082       -0.4789180191229381      -1.4477016688379543      -2.9364083702468644      -0.5482341914645765
0                         0                        16.294313719962275       -0.4789065731622018      -1.4694728673732627      -2.9340243157909756      -0.5356401629515446
0                         0                        16.291000452403058       -0.4789083511543647      -1.466057514829675       -2.934398313870876       -0.5376158487294056
0                         0                        15.949598895066638       -0.47912664464700244     -1.1141370446674728      -2.9729353546156325      -0.7411919829674645
0                         0                        16.11460191833233        -0.4790124630958304      -1.2842239709806762      -2.954309990747346       -0.6428014604517216
0                         0                        16.252008237153515       -0.4789297672887935      -1.4258639116419722      -2.9387997132069437      -0.5608667222984156
0                         0                        17.99861616955506        -0.4788596939079655      -3.4793057613812017      -1.471753843457753       4.32938165898571
0                         0                        15.915247317145575       -0.47915245758458425     -1.0787270613413114      -2.976812923799258       -0.7616756664417288
0                         0                        19.519426749023147       -0.48101586954800213     -3.700259401348532       -2.255715638316545       1.473982773768455
0                         0                        21.040237328491227       -0.4833429911005669      -3.6044431794135843      -2.10401010677694        1.586387247301417
0                         0                        22.56104790795931        -0.48584105856566046     -3.5599626152715587      -2.1158137973550595      1.4187544277227744
0                         0                        27.79531447711648        -0.4907540840135358      -3.0276314330525196      2.0393858263399522       1.9655007808257174
0                         0                        27.948264029874096       -0.4910748648504085      -2.8815531142966364      2.0119616482630684       0.5689124289184644
0                         0                        27.655190691608603       -0.49049558991748654     -3.272801487381031       1.997709271633255        1.7240098202808873
0                         0                        27.36242841004968        -0.4906755341056297      -1.0054132438508177      0.9668296716316718       0.2980520689746129
0                         0                        24.161508075322768       -0.4882088646672918      -2.431930901905355       -1.3969035666595655      1.2431730665447205
0                         0                        24.26238685978652        -0.48833277206668757     -2.386973404588322       -1.3224091991215534      1.2133870527000177
0                         0                        25.76196824268623        -0.48982035651394845     -1.7186720728780749      -0.21503694751399394     0.7706125677596418
0                         0                        25.96372581161373        -0.489969823878463       -1.628757078244007       -0.06604821243773529     0.7110405400701865
0                         0                        24.41120267466096        -0.4885100737543408      -2.3206523576653755      -1.2125155275466035      1.1694468927770743
0                         0                        24.54735281725394        -0.48866655746873344     -2.259975876451981       -1.1119748755491727      1.129246467546011
0                         0                        26.2613574413626         -0.4901683740518123      -1.4961149843980657      0.15373913071208278      0.6231602202244773
0                         0                        26.533657726548558       -0.4903271141702408      -1.3747620219713212      0.3548204347069941       0.5427593697623081
0                         0                        24.406902356540606       -0.48850504203054457     -2.32256883139556        -1.2156911157566697      1.170716627892915
0                         0                        26.226681570922164       -0.4901465879128377      -1.5115685840878221      0.12813258667006266      0.6333988047048393
0                         0                        28.508873195902176       -0.4910484365670774      -0.8807978721419261      0.3674931199740996       -1.4378959400881755
0                         0                        28.626013810224553       -0.49087432646835716     -0.9297537245764786      0.3733948325723304       -1.5347724162643814
0                         0                        28.744944941565166       -0.4906859453789179      -0.9794578767142212      0.3793867539925273       -1.6331296681755418
0                         0                        28.785231086180946       -0.4906194817731781      -0.9962944159655791      0.38141642788991703      -1.6664467183863891
0                         0                        28.82682031389999        -0.49054946031634644     -0.6997210963252556      1.6163060583209585       -0.8368500609760616
0                         0                        28.405655526919066       -0.4911924473978702      -0.8376607501402162      0.3622928653835089       -1.352533880924966
0                         0                        28.42870561879307        -0.4911610516696226      -0.8472939324733559      0.36345416215823434      -1.371596540696686
0                         0                        32.32344868837933        -0.48842269962859        -0.3886985167365751      4.3594869086845485       -0.6762814666528421
0                         0                        32.6984926353757         -0.48815991826748684     -0.09890157597332916     4.855173346249586        -0.16649609557009626
0                         0                        30.093282673225133       -0.48963087976659647     0.13622890075968375      2.697329567617654        -0.6137742595757025
0                         0                        30.1194290580449         -0.4896148919965125      0.15348726627912157      2.719647527930519        -0.6091688122014336
0                         0                        29.92173115051829        -0.4897387655819444      0.022993403588557282     2.550897083670341        -0.6439914966909743
0                         0                        30.17051411235199        -0.48958400241057637     0.18720682429418112      2.763252570175183        -0.6001706455009028
0                         0                        30.297768197801954       -0.48950905442169024     0.2712030454037784       2.87187376764917         -0.5777559982086409
0                         0                        30.348764060099338       -0.4894798202904174      0.3048637307174076       2.9154026776198805       -0.568773541867607
0                         0                        31.034326798823102       -0.4891312831228142      0.757381063915652        3.500583462663542        -0.44801791401592084
0                         0                        31.457657354222192       -0.488957406445205       -0.6898325969208372      3.331803710903131        -0.5870143596557966
0                         0                        31.774778186038972       -0.4887748753693604      -0.25839816027853146     3.842005169617991        -0.6074607402570393
0                         0                        32.074494136272186       -0.4885871759491567      -0.3295758433960856      4.12468399140829         -0.6450546501162719
0                         0                        31.69996484891352        -0.48881997051141024     -0.24063120460353105     3.7714445405411183       -0.5980767690335824
0                         0                        31.68084886670674        -0.48883138041859353     -0.236091468486876       3.7534151920083687       -0.5956790170574351
0                         0                        31.5459138171772         -0.4889106164985854      -0.40430304852282006     3.168661340737117        -0.32708056254178075
0                         0                        31.52705044026599        -0.48891674626588655     -0.3958985060716884      3.1538369627359373       -0.3228314155563936
0                         0                        32.75808098365846        -0.4881497640095064      -0.10025276603991529     4.867722407996041        -0.17431744511026181
0                         0                        33.48073481240145        -0.4879895199313671      -0.11663923593149672     5.019910340362113        -0.2691703543469579
0                         0                        34.50321205341528        -0.48764568775351513     -0.1398243238091652      5.235239853625508        -0.4033769925473507
0                         0                        34.86453896778677        -0.4874913685622163      -0.14801755875492972     5.3113338198085955       -0.4508034471656117
0                         0                        33.71071205543424        -0.4879241458316896      -0.12185406358299566     5.0683426044924          -0.29935632955691815
0                         0                        33.88177613130783        -0.48787101624580154     -0.1257330111750523      5.104367997251497        -0.32180957704149193
0                         0                        34.921900878068755       -0.487465293673104       -0.14931826343313048     5.323414002843947        -0.4583325625638963
0                         0                        35.06505962723997        -0.48739833434479496     -0.1525644463767435      5.353562648253259        -0.47712305851291603
0                         0                        36.24834312317209        -0.48674187256446755     -1.2998216115843348      4.853338309890958        1.0471555296988555
0                         0                        37.522044123478835       -0.48633896699327595     0.24478362081745159      4.274867317102839        -0.27320831576353166
0                         0                        37.78408861749709        -0.48626969883878957     0.17611629349832025      4.093235391388072        -0.25546644037590127
0                         0                        38.795745123785565       -0.48604590115430724     -0.08898276424759288     3.392021957816638        -0.1869716462499582
0                         0                        39.31983411182208        -0.4859572096949502      -0.2263174188856958      3.028758106387066        -0.15148789547475872
0                         0                        37.8335199104563         -0.4862571535200304      0.16316309337035628      4.058972885837655        -0.2521196658396718
0                         0                        37.97528549986096        -0.4862220919828871      0.12601419555946602      3.96071034801901         -0.24252134387960922
0                         0                        39.54881880366818        -0.4859242963228018      -0.2863216057507927      2.870041050739651        -0.1359843532858349
0                         0                        39.70222787654983        -0.4859042317924728      -0.3265216147635286      2.763708019648881        -0.1255977024821675
0                         0                        40.0694461240923         -0.48586267504756075     0.033563789442460745     1.7834668259106081       -0.9770393085800535
0                         0                        40.25722585118362        -0.48568697878844136     -0.2898283231037908      1.7144696815987857       -0.8942623685600992
0                         0                        40.398792604922434       -0.4855647982305064      -0.46853716335606777     1.7273165872268805       -0.7473863832603342
0                         0                        41.217591485392134       -0.48501030751195473     -0.8192598824189439      1.6463765239063548       -0.6070139017848533
0                         0                        41.31214072177356        -0.48544183300191546     -5.895300733863534       -0.13918351384872096     4.633884306700757
0                         0                        41.36148862223201        -0.4856723046514607      -5.720468059406712       -0.15017211821352205     4.7068028310983685
0                         0                        41.518714891771104       -0.4851235163047045      -3.919100329845424       2.486647374760622        -3.5230479926809757
0                         0                        41.578554765502986       -0.48491195483994765     -4.062186756963296       2.470083681846603        -3.5478714983817774
0                         0                        44.00951924533702        -0.4821219434188034      -2.525355779031111       2.034360686750867        -1.5559999978877217
0                         0                        44.10832265515475        -0.4819665656772053      -2.5691807239207414      2.0510912519397335       -1.589189867209864
0                         0                        42.64583189069342        -0.48393149688731        -1.9204826954567977      1.8034449701145547       -1.0979125170959207
0                         0                        42.672670232834605       -0.4839019097551439      -1.9323870302103998      1.8079895565167874       -1.1069280062388742
0                         0                        42.84343871032887        -0.4837079833420478      -2.0081325852362895      1.836906100492314        -1.1642922557404347
0                         0                        43.871875909631996       -0.48233293434763647     -2.4643031128038206      2.011053284657299        -1.5097630883158484
0                         0                        43.75477060803961        -0.4825074322764375      -2.412360235548352       1.9912236260871232       -1.4704252793883583
0                         0                        42.136334616098594       -0.4844472802366644      -1.6944916084914468      1.7171708487869353       -0.9267630800973166
0                         0                        43.58940360480742        -0.4827459990467462      -2.3390105422878733      1.9632217237966785       -1.414875483712077
0                         0                        43.61445526176546        -0.4827104486627734      -2.350122380306452       1.967463767473177        -1.423290792680504
0                         0                        41.80560060963421        -0.4847354200967059      -1.5477922219701128      1.6611670442062803       -0.8156634887448604
0                         0                        41.970163944736115       -0.48459664327617524     -1.620785442599015       1.6890328598770736       -0.87094331762259
0                         0                        45.37320659998062        -0.47968770184542014     -3.8574969793908522      2.0095072802697302       -2.2689069101170674
0                         0                        46.53206188510338        -0.47722914266337607     -3.487184370664366       1.9863489936987229       -2.2751544014423573
0                         0                        47.078321608624854       -0.4759467627742896      -3.7914163640363014      1.9150500805373873       -2.4199744314855796
0                         0                        47.69091717022615        -0.4744145524402566      -4.132593208697983       1.835092880932681        -2.5823808909323045
0                         0                        47.75620902546516        -0.4742453789111451      -4.168956627809706       1.8265708572205739       -2.5996905479144363
0                         0                        46.36713431042449        -0.477600772690613       -3.3953301799817694      2.007875671062262        -2.2314301155550726
0                         0                        47.36106202086838        -0.47525194139388194     -3.948884827332762       1.878146235659738        -2.4949323191577744
0                         0                        47.63502823620436        -0.4745584649070902      -4.101466619874472       1.842387616535433        -2.5675640615824094
0                         0                        48.354989731312244       -0.47264120795522724     -4.502439474683754       1.7484168002571963       -2.758434522760406
0                         0                        48.61199205328319        -0.4724057870175588      -4.279435722673512       0.7475137298056751       -0.607503753734477
0                         0                        48.8521928794549         -0.47232912676916483     -5.669039687507492       0.8857923615321113       -2.330363419209462
0                         0                        49.52394584189052        -0.47100151377794996     -5.516614781995273       0.47284509414569165      -1.6223187882540167
0                         0                        49.76340417043792        -0.470643255091877       -5.462280204934941       0.32564267308295713      -1.3699236469645202
0                         0                        50.61823674524821        -0.4698573082956867      -5.268313402061693       -0.19984927943610842     -0.4689084690549592
0                         0                        50.67461546142097        -0.4698325469793676      -5.255520722362327       -0.23450701536609841     -0.40948387471965475
0                         0                        49.43933164884696        -0.4711425581527132      -5.535814266182111       0.524860048680095        -1.7115042901234325
0                         0                        50.562378465358          -0.46988514507339135     -5.280987991546937       -0.16551147174271108     -0.5277845103711556
0                         0                        50.201706817407555       -0.4701440579171844      -5.362826621123542       0.05620451579057928      -0.9079415593899576
0                         0                        49.40507767648904        -0.471201802335558       -5.543586704551526       0.5459170221113077       -1.747608844287175
0                         0                        50.767540669903916       -0.4697990464089914      -5.234435417325116       -0.2916310074587116      -0.31153835214503545
0                         0                        50.8665247312955         -0.46977337266565977     -4.981225814302977       -0.28559794249649606     -0.14671998579490353
0                         0                        49.4043494823834         -0.47120307521347454     -5.543751936301838       0.546364665490433        -1.7483763793121483
0                         0                        51.04576496962218        -0.4697604021094288      -5.0394173009637235      -0.4245022895421826      0.0019918114514165808
0                         0                        51.33624692833733        -0.4697944108496106      -4.954162417600585       -0.5997654590891486      0.12654073102243046
0                         0                        51.75968727209573        -0.46995444892957655     -6.450309459699042       -1.0232942012150392      0.3944953960533262
0                         0                        51.3096354404723         -0.469791066484421       -4.966645047988159       -0.5789481825646163      0.12480674768511335
0                         0                        53.40673223053986        -0.4711349355418095      -5.544103683354365       -2.1717075763817952      1.26427998229993
0                         0                        53.56808082910671        -0.47134757997846793     -5.452582027399018       -2.294404682116893       1.3715586744582593
0                         0                        52.31539438429055        -0.4701511256323935      -6.163142508498453       -1.3418026605453284      0.5386629153502702
0                         0                        52.6380915814243         -0.4703595691786488      -5.980099196587929       -1.5871968720156198      0.7532202996669546
0                         0                        53.585275808557995       -0.471371262194467       -5.442828530886004       -2.307480557771225       1.3829914041107045
0                         0                        52.672481540326864       -0.4703858655649018      -5.960592203561731       -1.6133486233240604      0.7760857589719548
0                         0                        53.38206175744713        -0.4711039474925585      -5.558097499047193       -2.1529469817904614      1.247876889172253
0                         0                        52.26605343810514        -0.47012535683861073     -6.191130139884194       -1.3042814713626885      0.5058567290949036
0                         0                        54.49807007678915        -0.47291063881827206     -3.5068616519651314      -3.7334757865813373      1.1773926914378485
0                         0                        53.01151967319301        -0.47068720160447347     -5.768279833776518       -1.8711692552105226      1.0015080298112267
0                         0                        51.84520213137421        -0.46997134743550395     -6.429849340702276       -0.984246232511118       0.22603788852089268
0                         0                        57.03725242548438        -0.4772895445117836      -1.648125037783867       -4.612176192941368       1.6031725931366967
0                         0                        57.33843410283072        -0.47776805518480037     -1.4698657999916707      -4.766335479845905       1.574382411091079
0                         0                        56.70870287635871        -0.47675766361671257     -1.8425823922953626      -4.444008711266317       1.6345788905372753
0                         0                        55.60338647657392        -0.4748925439898759      -2.4967817469202664      -3.878254547546703       1.7402369127923514
0                         0                        56.07307869727321        -0.4756993755550632      -2.218786823734767       -4.11866564574337        1.6953386817361995
0                         0                        57.64808731775725        -0.4782509848950213      -1.2865925459244014      -4.9248309076599845      1.5447824284251066
0                         0                        56.106126536838225       -0.47575535063564384     -2.1992269263883486      -4.135581121565259       1.6921796140078165
0                         0                        57.7141829968873         -0.47835287953800937     -1.2474727512314363      -4.958661859303483       1.5384642929682393
0                         0                        57.81401927614347        -0.4785059976987817      -1.2480404569949144      -4.913774966938373       1.7850442982877865
0                         0                        57.93029727515106        -0.4787101447249799      -1.1712770663996253      -4.889421147044871       1.7263168868112615