% Model:              ElectrodesShort.mph
% Version:            COMSOL 5.5.0.292
% Date:               Mar 27 2026, 14:52
% Dimension:          3
% Nodes:              79
% Expressions:        5
% Description:        Electric potential, Electric field, x component, Electric field, y component, Electric field, z component, Electric field norm
% Length unit:        mm
% x                       y                        z                        V (V) @ TT1=0.0087266    es.Ex (V/m) @ TT1=0.0087266 es.Ey (V/m) @ TT1=0.0087266 es.Ez (V/m) @ TT1=0.0087266 es.normE (V/m) @ TT1=0.0087266
0                         0                        69                       0.2130940856233468       2.1268092803472882       -0.17035999053291562     -39.69943520927558       39.75672894211513
0                         0                        69.25                    0.22295299373716854      2.122424013226123        -0.05156851429865128     -39.104502155927364      39.16209177082493
0                         0                        64.25                    0.018523798617026424     2.5670682763141457       -2.2357210093460793      -38.13538439034797       38.28701908697628
0                         0                        64.5                     0.028146974916364677     2.5650683816767383       -2.1435100532119975      -38.772188224208634      38.91602228959636
0                         0                        68.75                    0.20310088338290927      2.1525576848185892       -0.2809572499870683      -40.20831847136389       40.266876162143674
0                         0                        64.75                    0.03792565012331426      2.5371654801230563       -2.0456119002209947      -39.39162890458347       39.52622122688013
0                         0                        70.27997378061869        0.2618553466217718       2.086037391362254        0.3164530969200996       -36.25971285595625       36.32104721724183
0                         0                        70.36895340103376        0.2650699753961955       2.0753002690584026       0.3298862969909635       -35.98244182139132       36.04374863420156
0                         0                        69.76078402215586        0.24260993413110138      2.1116701086901912       0.11338740142417691      -37.85208007580593       37.91110620142812
0                         0                        70.15273190022774        0.25721318253717457      2.0598727105215175       0.27468019917212416      -36.67796564121659       36.736789304097236
0                         0                        70.17493058229105        0.2580265339013537       2.065439105545753        0.275337790022121        -36.60652240993075       36.665778766393245
0                         0                        70.47203058261708        0.2687631375030664       2.0508000591802755       0.36982797659484845      -35.68259735208616       35.743395297678596
0                         0                        70.57225217679797        0.2723217321100154       2.0593945559493534       0.3643202989684937       -35.397961739216264      35.45968881008874
0                         0                        71.27732836690376        0.29640985541239884      1.9972378189211355       0.5367917550542529       -32.937550175824846      33.002413788670104
0                         0                        71.76290730156698        0.3119978289040823       1.9960244664494482       0.8131019188970825       -31.27895227259725       31.353119520593093
0                         0                        71.86577057760094        0.3151969148714893       1.9929685142869076       0.8462060967323488       -30.921788181195694      30.99749945688877
0                         0                        72.00000000000001        0.31931566628815944      1.994709096568819        0.8674909000689652       -30.44184720446593       30.51946044840385
0                         0                        63.545380066929596       -0.007637047666914349    2.623703897760601        -2.4730075577774047      -36.067564795135134      36.24732843638576
0                         0                        63.644982585613576       -0.004029488443063549    2.587862059628897        -2.422978362238922       -36.41978877617475       36.59192354447534
0                         0                        63.10395722414448        -0.023241593113528445    2.6468325511608155       -2.6321065281553224      -34.594921152876         34.795722106361715
0                         0                        62.90088006890783        -0.030200900555981014    2.6649470787476743       -2.6676623435252824      -33.93563192002824       34.14447948238819
0                         0                        62.3273142388182         -0.04908487142440154     2.721153421485635        -2.8310110523405676      -31.92181400875571       32.162423869032786
0                         0                        62.296433823206236       -0.05006881255885174     2.73170657296009         -2.8396485673251366      -31.81066357110155       32.05376953839396
0                         0                        62.30715342059647        -0.04972762048901879     2.732791969467156        -2.8362691838619627      -31.846964119982985      32.08958863075675
0                         0                        62.25052667283198        -0.051525716349761795    2.6885279050847686       -2.841736980375594       -31.6272430501395        31.868262492872923
0                         0                        62.26659612252817        -0.051016634100022745    2.730127859703895        -2.851116453984025       -31.710154377454494      31.954911262691784
0                         0                        62                       -0.059332138940056026    2.7154119111085464       -2.9138252726337024      -30.692848475842567      30.95019849899933
0                         0                        68.48544107570018        0.1923932512713143       2.190358744243568        -0.4048512652823746      -40.727636887071526      40.78850306619053
0                         0                        68.25                    0.18276262681003388      2.2062995029291415       -0.5070232998427855      -41.08324701582228       41.14557103123347
0                         0                        65.03249789673897        0.04914889582073413      2.4913227646601115       -1.9251992807535316      -40.05289117481699       40.17645047599477
0                         0                        65.25                    0.05790398475968778      2.4720799625810925       -1.8362011224380879      -40.45377962730896       40.57081586606702
0                         0                        67.87968817037817        0.1674562632460529       2.238352367361472        -0.6737577948166518      -41.558326038986195      41.624015112062736
0                         0                        67.9271036004979         0.16942548339287195      2.234317923619983        -0.6533068492547329      -41.5040923276307        41.56932362167547
0                         0                        67.75                    0.16205823309490427      2.2486024444905297       -0.7308937026249964      -41.68505482290436       41.752056406199294
0                         0                        67.85585985991392        0.1664656761139225       2.2406529804012507       -0.6838278901871035      -41.58435657694031       41.65029241530121
0                         0                        67.96402479847448        0.17095709752842717      2.2298937343398393       -0.6365383772484279      -41.46162297771696       41.526422758510094
0                         0                        67.99801785102783        0.17236584172635197      2.226950640267358        -0.6204179872132953      -41.42263538995721       41.487093779660924
0                         0                        68.02238403632089        0.17337481300617857      2.224856500657552        -0.6088430087382619      -41.39470082343101       41.4589186125153
0                         0                        65.5900065516046         0.07176225434338972      2.44004064042781         -1.6940677056276314      -41.033857302992146      41.14123368204351
0                         0                        65.75                    0.07834629977955385      2.4220560643516933       -1.6250982159851617      -41.26312781654377       41.366085347720414
0                         0                        65.5791845139682         0.0713182734392126       2.4405310931544477       -1.6990908208858286      -41.01837948806889       41.12603260055001
0                         0                        65.53122125310787        0.06935261534894359      2.4449068917336625       -1.7203033321155559      -40.946776967537964      41.05576156026133
0                         0                        65.52862418286888        0.06924627872760625      2.4443176993847366       -1.7211510010727205      -40.95123239326307       41.060205604831765
0                         0                        66.82849431359998        0.12339731090068233      2.327168855870557        -1.1635291362751445      -42.06775949080449       42.148142349466205
0                         0                        67.03790780024401        0.13220625287370616      2.30115717505584         -1.0565636927175035      -42.061893419249785      42.13804135449829
0                         0                        67.09468782017824        0.13459448286573522      2.305955926285904        -1.0214098753704093      -42.049591686628446      42.125157232699436
0                         0                        67.09907059384635        0.13477877575041464      2.3052688450925416       -1.0190845880438246      -42.04915428318719       42.12462669006127
0                         0                        66.8194001541784         0.12301491768199643      2.330967804099828        -1.1540331082542892      -42.04802936319021       42.12839869549284
0                         0                        66.5545787740612         0.11188463078577966      2.350930433339901        -1.2729154309694763      -41.98076663799026       42.065805057198176
0                         0                        66.59259389794204        0.11348076472675765      2.352169700756363        -1.2580338688711095      -42.003664725088356      42.088278675351106
0                         0                        66.54074822221668        0.11130402932890213      2.3529544221106784       -1.2773409276561267      -41.976100480680145      42.0613956725422
0                         0                        66.59413760181216        0.11354560628609621      2.352009791486509        -1.2573894563947192      -42.00410463108403       42.08868950399093
0                         0                        66.60201094673964        0.11387632792274273      2.3511942070558973       -1.2541027627476637      -42.00634828137572       42.090785023269184
0                         0                        66.81404900121441        0.12278986071415399      2.3309158050699033       -1.1458359247567387      -42.06834126664107       42.14844534954242
0                         0                        66.79237712219805        0.12187822920287955      2.3330056209503987       -1.1565444236115354      -42.062020534101336      42.14254479314622
0                         0                        67.3978788967498         0.14733034281052973      2.2772872380377045       -0.8914906249812162      -41.94831338598445       42.019540557075594
0                         0                        67.43613277788938        0.14893455089716837      2.273283754039465        -0.8735155628660891      -41.92333774322212       41.99401262081562
0                         0                        67.48542268509908        0.15100015522586735      2.2681252877893123       -0.850354798067019       -41.89115677026997       41.96113095657743
0                         0                        67.3278904751468         0.14439360553444824      2.28411691052429         -0.9260848173469967      -41.97608848445009       42.04838674199341
0                         0                        67.33742476404225        0.14479379644613896      2.282893635514256        -0.9216071847866871      -41.97163243716443       42.04377352943662
0                         0                        67.21984609668398        0.1398556041752747       2.2938551768511957       -0.9724930828057552      -42.02176152955457       42.09555744274239
0                         0                        67.17020495468815        0.1377691286319822       2.2915350199626383       -0.9946030947714064      -42.033568734666915      42.10773407149584
0                         0                        67.14100454131878        0.13654159629821802      2.29530718737714         -1.0082290364738355      -42.042798146630275      42.1174766204329
0                         0                        67.54523069528763        0.15350443409989406      2.2644884543508397       -0.824638044393561       -41.85178686565871       41.921116393921004
0                         0                        67.58579704305832        0.1552016628359496       2.260792788314518        -0.8088669173485385      -41.82962911719494       41.89848829974369
0                         0                        67.56971177080956        0.1545288136247795       2.263181068055445        -0.8129365878576778      -41.83617072186567       41.90522682329464
0                         0                        67.5747026558242         0.1547376038054269       2.2627365079542017       -0.810604066401396       -41.83242914976347       41.90142221962013
0                         0                        66.17807875077825        0.09611887424218735      2.385128704429974        -1.4423971875237953      -41.733791720272535      41.82677037417975
0                         0                        66.20445439291339        0.09721993060430256      2.384859083848312        -1.4322665731783388      -41.75968630727289       41.852244155699616
0                         0                        66.17543014638048        0.09600834097120345      2.384413865952432        -1.446941077853694       -41.74015708258747       41.833237757147174
0                         0                        66.31581789039043        0.10187586952077507      2.3788482847193535       -1.3837719614255093      -41.8441841464205        41.93458585562147
0                         0                        66.28166689211558        0.1004472207733747       2.3832818011286463       -1.3980077986283845      -41.82240362960698       41.91357659883465
0                         0                        66.22259752085938        0.09797771223599719      2.3713197492921267       -1.408489533525369       -41.78913807918639       41.88005565326698
0                         0                        66.07951135466386        0.09200938095342875      2.3922774123986557       -1.483960975435357       -41.64414066350791       41.739185222001176
0                         0                        66.15949648494716        0.09534342276711268      2.3823336232106556       -1.451122036546412       -41.72240013915055       41.81554665466685
0                         0                        66.17382812807128        0.09594147379850844      2.380551906566353        -1.4452379934612338      -41.73642258147248       41.82923272230614
0                         0                        65.96771232869258        0.0873597034769092       2.402424429931056        -1.533620149721284       -41.528997389602964      41.626689252098956
0                         0                        65.96864039880491        0.0873982457631719       2.40229789835933         -1.533210404070339       -41.52999944891703       41.627666563989145
0                         0                        65.93139359838851        0.08585213512579663      2.4066159946383507       -1.549976859342408       -41.496107594354555      41.594725318150566
