% Model:              ElectrodesShort.mph
% Version:            COMSOL 5.5.0.292
% Date:               Mar 27 2026, 14:51
% Dimension:          3
% Nodes:              84
% Expressions:        5
% Description:        Electric potential, Electric field, x component, Electric field, y component, Electric field, z component, Electric field norm
% Length unit:        mm
% x                       y                        z                        V (V) @ TT1=0            es.Ex (V/m) @ TT1=0      es.Ey (V/m) @ TT1=0      es.Ez (V/m) @ TT1=0      es.normE (V/m) @ TT1=0
0                         0                        69                       0.21853043444477316      0.46178766431103213      -0.44313148834385174     -41.58979328942718       41.594717443686925
0                         0                        69.25                    0.22885621587766797      0.4383978771010675       -0.45721227524370534     -41.04651716004668       41.05140444288462
0                         0                        64.25                    0.015250293944549053     1.2464615294902215       -1.1907082799458655      -39.62231826622105       39.659797747115974
0                         0                        64.5                     0.025251484927688545     1.2162564224119805       -1.1543287698511477      -40.313957294235486      40.348815438813155
0                         0                        68.75                    0.20806310584260992      0.5025693296041709       -0.48307910801690923     -42.116009030829545      42.1217777170026
0                         0                        64.75                    0.035424492116124334     1.160384473087191        -1.1156987842911308      -40.99539083916027       41.0269831447324
0                         0                        69.95485538706568        0.25707508726861883      0.381197025280116        -0.3182139103263921      -39.010278934005555      39.0134391431174
0                         0                        69.96804755950575        0.25758944774952064      0.37947529880537445      -0.31626845771657486     -38.96936895772035       38.9724998454383
0                         0                        69.6832917316295         0.24636696594533752      0.4179627111735158       -0.3596745612257166      -39.86092240796381       39.864736219265716
0                         0                        70.03365276404134        0.26013917474954723      0.3694578809538598       -0.3052152947090008      -38.76461210824402       38.76757417487638
0                         0                        70.20432843816153        0.26671070082529413      0.36811672023469555      -0.28279748057616416     -38.244700035108615      38.247517110397816
0                         0                        70.91804322723883        0.29313581526227567      0.26185209732462056      -0.14407238264995215     -35.81149445290805       35.812741563904034
0                         0                        70.92380644830256        0.2933421482884624       0.26104709375566415      -0.14293698018619239     -35.79187592110418       35.79311328338428
0                         0                        70.75622413626623        0.28729626300384375      0.28445489952590464      -0.17595208889917302     -36.362341444128674      36.363879730122996
0                         0                        70.9247707839886         0.29337663735899056      0.2676103767843756       -0.18693575948827856     -35.76293399567908       35.76442377938216
0                         0                        70.96027639961122        0.2946442573717499       0.25997247631164555      -0.18165459711417498     -35.640982851323315      35.642393896726624
0                         0                        71.5550913401507         0.31519519282911995      0.24147916606785813      -0.16431347371836047     -33.4485066531705        33.44978188916157
0                         0                        72.00000000000001        0.3297091725815896       0.21150064435317972      -0.14446286638729333     -31.796255080106164      31.797286663511144
0                         0                        70.97690329222559        0.29523609436069315      0.24850533925859963      -0.20554283546715624     -35.56277238509658       35.564234597064505
0                         0                        71.01223891684464        0.2964904058410342       0.27337566469812913      -0.18867483985550848     -35.467034834996504      35.468590223408924
0                         0                        71.06097670135831        0.2982145686612632       0.2709610251422987       -0.18080745137206122     -35.28557886845196       35.2870824423522
0                         0                        70.96198686850451        0.29470518649433153      0.25070202367570005      -0.20881725299807385     -35.61830155852388       35.61979592956379
0                         0                        63.70088025061911        -0.006048585077493912    1.3295654786076643       -1.2814694973871177      -37.8925938535352        37.93756156349025
0                         0                        63.68986430179661        -0.006465811692793264    1.3313685012694387       -1.2821811076844405      -37.85696199903066       37.90205934082113
0                         0                        63.686159287262626       -0.006606151594326149    1.3332199953871404       -1.2951384668576686      -37.87189407139175       37.91747907969558
0                         0                        63.31603464227842        -0.020384124845248323    1.3740327864783164       -1.3258282152216818      -36.56873103043355       36.61854551631985
0                         0                        63.12401483948578        -0.02734185096643421     1.4133837126710884       -1.3353463765618905      -35.90010832880075       35.95272703821325
0                         0                        62                       -0.06531952868049822     1.5457099258308347       -1.4689673522716795      -31.67197180021196       31.743674676544202
0                         0                        62.310698779580214       -0.05529744909852681     1.545296699210697        -1.334582451353839       -32.81585049581226       32.87931106290938
0                         0                        62.616042757425895       -0.04510003153382967     1.4793100362043283       -1.2914425750590581      -33.9771325303711        34.03383194843466
0                         0                        62.64229797530923        -0.04420664367643273     1.503123645023959        -1.3957655800955369      -34.0974829693906        34.15912597088355
0                         0                        62.818727829397304       -0.03813188025711446     1.4698151165003082       -1.3702128887352463      -34.76573126062152       34.823754965869284
0                         0                        68.48544107570018        0.19684736917704965      0.5536786310887578       -0.5266517981658012      -42.65808411534755       42.6649277807323
0                         0                        68.25                    0.1867604175109007       0.5804859021095581       -0.5652823267536178      -43.025573345887096      43.03320194609969
0                         0                        65.03249789673897        0.04711024718208366      1.0868004887726954       -1.0701520139841278      -41.721862386052116      41.74973247334767
0                         0                        65.25                    0.05623275320621344      1.050138890044345        -1.0298195673129158      -42.15869116771384       42.184340234312984
0                         0                        67.75                    0.16507947920457755      0.6499520628211712       -0.6412177541822075      -43.6409587896776        43.650508381628065
0                         0                        67.85585985991392        0.1696941426167423       0.6370899635386422       -0.622790879500144       -43.54141343350125       43.550527389324614
0                         0                        67.87968817037817        0.1707313559066001       0.6334783960036248       -0.6196660570101358      -43.51484949253728       43.523871694262056
0                         0                        67.9271036004979         0.17279332650253945      0.6267014871509673       -0.6132721652673467      -43.459816380262794      43.46866109404392
0                         0                        67.96402479847448        0.17439714870466835      0.6201894598343642       -0.6072885283446112      -43.416772397401814      43.42544829625298
0                         0                        67.99801785102783        0.1758723417064448       0.6156916484253987       -0.6010891989421179      -43.3770450924479        43.38557854153018
0                         0                        68.02238403632089        0.1769289280973099       0.6124898091159423       -0.5966169808161297      -43.34858537921326       43.35701730939308
0                         0                        65.5900065516046         0.07068344001556785      0.9896320958222873       -0.981804923229376       -42.80715078595068       42.82984322879874
0                         0                        65.75                    0.07755332438539247      0.9599932026860358       -0.9525397252646712      -43.06126317031109       43.08249417919303
0                         0                        65.53122125310787        0.06816986849362436      0.9990749242066066       -0.9924649744450775      -42.709677739256826      42.73288792043955
0                         0                        65.5791845139682         0.07022027876969501      0.9911872898590843       -0.9838197411874603      -42.78952474580737       42.81230876160254
0                         0                        65.52862418286888        0.06805895407484376      0.9986122720061665       -0.992608989441524       -42.71432838790011       42.73752857507194
0                         0                        67.48542268509908        0.15350341768408152      0.6862802184048888       -0.6802317134718887      -43.84791911042277       43.85856479681438
0                         0                        67.54523069528763        0.15612475254049762      0.6793502698359148       -0.6710162640639794      -43.81037669511868       43.820781437395226
0                         0                        67.3978788967498         0.14966235853453497      0.7005266163399959       -0.6954984450808155      -43.903804272198634      43.9149004917333
0                         0                        67.43613277788938        0.15134138236375272      0.6943013886732246       -0.6888273637011473      -43.8793842148041        43.89028248514352
0                         0                        66.82849431359998        0.12462271205556828      0.7869542326216283       -0.7991985150100618      -43.9953172780116        44.009612104897506
0                         0                        67.03790780024401        0.1338366624638655       0.7464386269157508       -0.754864627224265       -44.0023619159646        44.01516608412057
0                         0                        67.09468782017824        0.13633517167754858      0.7474279075171069       -0.7366287312491977      -43.99344951627455       44.00596403563539
0                         0                        67.09907059384635        0.1365279845729503       0.7464556563179485       -0.7356615246658293      -43.99325023231705       44.00573212581501
0                         0                        66.8194001541784         0.12422277747343619      0.7910986887711715       -0.7881486729946161      -43.97658253627921       43.9907584276095
0                         0                        66.59413760181216        0.11432143440628771      0.8273087488343833       -0.8242005725320496      -43.91237332167691       43.92789861912338
0                         0                        66.60201094673964        0.11466718314745386      0.825964704726303        -0.8232919508340615      -43.91528934293967       43.930771281686745
0                         0                        66.59259389794204        0.11425364714693932      0.8275722716580418       -0.8243787233487865      -43.9118015858578        43.92733539221417
0                         0                        66.5545787740612         0.11258502678783139      0.8290907968061929       -0.8274186400471706      -43.88571902098121       43.90134789666211
0                         0                        66.54074822221668        0.11197812221028497      0.8322146369552468       -0.8291370623241505      -43.87716771977554       43.892891185013035
0                         0                        66.81404900121441        0.1239874122694156       0.7914098085800028       -0.7780500770243748      -43.99555441384382       44.009550095280076
0                         0                        66.79237712219805        0.12303403475866216      0.7949490945001081       -0.782518146680502       -43.98735745396693       44.00149877556208
0                         0                        67.3278904751468         0.1465888208695323       0.7107863798109975       -0.7092949134135651      -43.929749279617454      43.94122424696391
0                         0                        67.33742476404225        0.14700763926556176      0.7090259016911205       -0.7077211132138004      -43.92544382854385       43.93686609713895
0                         0                        67.21984609668398        0.14183996568465893      0.7285424616814282       -0.7238018698766098      -43.97138203686956       43.98337301182851
0                         0                        67.17020495468815        0.13965675272197386      0.7285338334951914       -0.7312510759240922      -43.98020369312172       43.99231531268916
0                         0                        67.14100454131878        0.138372399027306        0.7343132137841759       -0.7360942922377944      -43.98798212819838       44.00026843570052
0                         0                        67.58579704305832        0.1579013798502657       0.6731729061976921       -0.668604378311592       -43.787678403747236      43.79795627156966
0                         0                        67.56971177080956        0.15719704084534697      0.6764210308965346       -0.6677504858038787      -43.79396731888971       43.80428072289637
0                         0                        67.5747026558242         0.15741560198101462      0.6757359370397467       -0.6668508865297156      -43.79015254231922       43.80044256444287
0                         0                        66.17807875077825        0.09611001975250848      0.889874702319446        -0.8909467236161674      -43.59401440373341       43.612197317758095
0                         0                        66.20445439291339        0.09726018614851711      0.8881055314934372       -0.8884679294997966      -43.62461846341739       43.64270205630669
0                         0                        66.17543014638048        0.09599455994601949      0.8891396399582163       -0.8956668272076058      -43.60236422757151       43.62062533479447
0                         0                        66.31581789039043        0.10212464605719879      0.8734304368504837       -0.871476762518455       -43.72284960879631       43.74025526204718
0                         0                        66.28166689211558        0.10063190234449663      0.8671083176237318       -0.8657856518367595      -43.69969193110616       43.71686787160081
0                         0                        66.22259752085938        0.09805182580704087      0.8720359203115322       -0.8684471242366953      -43.65781611702249       43.675159474942475
0                         0                        66.07951135466386        0.09181764847575113      0.9044716567258178       -0.9053308039082211      -43.492418160784354      43.51124142465772
0                         0                        66.15949648494716        0.09529998871689244      0.8882561910921822       -0.8952795136237413      -43.5822725675452        43.600516127912194
0                         0                        66.17382812807128        0.0959247096636581       0.8853507227171917       -0.8934785350567722      -43.59837257621297       43.616513399045346
0                         0                        65.96771232869258        0.08696220913141689      0.9228434145703508       -0.9240092726273816      -43.36202594966511       43.38168654585881
0                         0                        65.96864039880491        0.08700245265577172      0.9226509744009181       -0.9238591050053993      -43.36315530649313       43.38280809953993
0                         0                        65.93139359838851        0.08538815797328127      0.9296075601877476       -0.9302105784336021      -43.32420996170816       43.344164898430805
