% Model:              ElectrodesShort.mph
% Version:            COMSOL 5.5.0.292
% Date:               Mar 27 2026, 14:52
% Dimension:          3
% Nodes:              85
% Expressions:        5
% Description:        Electric potential, Electric field, x component, Electric field, y component, Electric field, z component, Electric field norm
% Length unit:        mm
% x                       y                        z                        V (V) @ TT1=0.017453     es.Ex (V/m) @ TT1=0.017453 es.Ey (V/m) @ TT1=0.017453 es.Ez (V/m) @ TT1=0.017453 es.normE (V/m) @ TT1=0.017453
0                         0                        69                       0.19974377724536324      2.9455361411232843       1.0271822390155307       -39.74565195357735       39.86788351199145
0                         0                        69.25                    0.2096169847908258       3.0025598672105502       1.1772278701857886       -39.169406332249295      39.301954450578876
0                         0                        64.25                    0.005367555235227664     1.7504391744873402       -1.779152002674373       -37.94989306374394       38.031878769024814
0                         0                        64.5                     0.014951527628207076     1.8182760201117958       -1.6645263871387783      -38.624874995399445      38.70345907265949
0                         0                        68.75                    0.18973793276172296      2.893904321641628        0.8760532853510199       -40.25525983864872       40.36865239587166
0                         0                        64.75                    0.02469612565292721      1.8662514722240209       -1.5296801530882556      -39.26247225779196       39.33655480239994
0                         0                        69.71439592794178        0.22755156898456924      3.1039337225898063       1.410721441353079        -38.063245784353725      38.21564102798022
0                         0                        70.11815497854465        0.24267521578168935      3.1792452947101992       1.6231634845389848       -36.86426431515918       37.0366878087039
0                         0                        70.14773275935609        0.24376367789907283      3.1757114113710827       1.6405295774886213       -36.75798452092343       36.9313675119589
0                         0                        70.28960719299711        0.24895010862298111      3.209620088039358        1.6980248838748793       -36.40807945112971       36.5887031600681
0                         0                        69.7629256206795         0.22939422150741803      3.115596413069593        1.4295555192256693       -37.89983542022075       38.05454105453776
0                         0                        70.0653574436331         0.24072487030560938      3.1700383782032304       1.6005338696837725       -37.01590752799559       37.185861051055504
0                         0                        70.55906990869332        0.25863801074196074      3.2591634508482943       1.8085981733137018       -35.49724588450359       35.69240310117499
0                         0                        70.99319028405024        0.27372957286335586      3.3453312028914297       1.9837360156257944       -34.02757997658824       34.24912624432686
0                         0                        71.04849476226934        0.27560639070709525      3.347660340137111        2.0088014385432302       -33.84460340444315       34.06903715364532
0                         0                        71.32714140205344        0.28489927259223097      3.3920014248065016       2.060516658829445        -32.923693550195765      33.16204154684095
0                         0                        71.80976772559629        0.3004031023296102       3.7716374294438992       2.4049805863972153       -31.29774142889596       31.61578401795787
0                         0                        72.00000000000001        0.3062658746767392       3.221803551372659        2.5731406701870583       -30.472160650213         30.7498560277052
0                         0                        71.58228640044179        0.2931888309146445       3.4175379641710038       2.105602327274539        -32.048148684042985      32.2985597352529
0                         0                        71.42324431924295        0.28804579989766294      3.4049431256795373       2.0429768168252167       -32.62694834956747       32.86769159172182
0                         0                        63.878428278565785       -0.0085497809531689      1.6749644525264973       -1.9498131612619085      -36.94737042770172       37.036677210609284
0                         0                        63.62291055347942        -0.017882453890501523    1.6378498887426396       -2.0752124456505756      -36.11545458246097       36.21208525686471
0                         0                        63.36382538867996        -0.02712788328547039     1.6015597493334912       -2.2026467942031935      -35.261311475904556      35.36632202437026
0                         0                        63.392933008396376       -0.02610012521710544     1.6063487028067094       -2.1879323082932274      -35.356490898737356      35.46052527266312
0                         0                        63.33263018806268        -0.028225473444684353    1.5863375269006434       -2.1946244321914303      -35.17356834957674       35.277652325374085
0                         0                        63.34360983077235        -0.027839533793958687    1.5910949268434749       -2.199231123119745       -35.169000368627394      35.27359901580273
0                         0                        63.03963798814284        -0.03838086327812183     1.5455991847750319       -2.3199460715444573      -34.15651723246079       34.27008456462054
0                         0                        62.69772336512326        -0.04985416305615007     1.4972609850543108       -2.4555577365905634      -32.95555698479812       33.08081453702995
0                         0                        62.72533111260288        -0.0489429957852478      1.5011640319603572       -2.444607831696686       -33.052527997496355      33.17678718512275
0                         0                        62.67449187710429        -0.05061858449471591     1.5082634635092589       -2.4631445377313455      -32.85898897645525       32.98568016949052
0                         0                        62.46356838442759        -0.05746437266809979     1.5152328140583613       -2.570321815387871       -32.053535337534285      32.19210481391388
0                         0                        62.56361625925701        -0.05423837278816069     1.5119270243498306       -2.519484145655281       -32.4355882033627        32.56840655889215
0                         0                        62                       -0.07196557803767954     1.459499438153384        -2.6464061532175336      -30.415147060635412      30.56492720190638
0                         0                        68.25                    0.16938056949094515      2.7844860345162488       0.5696553139131311       -41.11628716284213       41.214402090899995
0                         0                        68.48544107570018        0.17901916192706427      2.8416090909026295       0.7066897082656922       -40.764590340917835      40.86962170404958
0                         0                        65.03249789673897        0.035885252871824654     1.9189316980553883       -1.3668441151505277      -39.939720712307555      40.00914710755595
0                         0                        65.25                    0.04461708104725926      1.9729220817327189       -1.2512773377148392      -40.35721488987491       40.42478089222016
0                         0                        67.75                    0.14866582365727501      2.652561934729249        0.26570394856588564      -41.6990513323899        41.78417841034027
0                         0                        67.85585985991392        0.1530746543405334       2.678913927969802        0.3266982892905048       -41.59931613326842       41.68676545813194
0                         0                        67.87968817037817        0.15406560894716062      2.684808591484739        0.3405653087707492       -41.57430630491103       41.66229862401994
0                         0                        67.9271036004979         0.1560356324562641       2.6975318330465825       0.3688429744564985       -41.52199817356356       41.611165033624346
0                         0                        68.02238403632089        0.15998683517512752      2.7207200257002455       0.4292558813483893       -41.41624560634261       41.50773395639435
0                         0                        67.99801785102783        0.15897734983877287      2.714586032551802        0.4137171451965782       -41.44328486288376       41.53415461316728
0                         0                        67.96402479847448        0.15756792493155644      2.705803976986431        0.3917502619515858       -41.48083726728808       41.570839585277206
0                         0                        65.5900065516046         0.05844410096930768      2.0578812650267793       -1.050346445489339       -40.950704227282955      41.015829623048106
0                         0                        65.75                    0.0650154611754073       2.095213390261023        -0.9596204330140949      -41.18943287573131       41.253850379698655
0                         0                        65.5791845139682         0.05800102253132188      2.0543386166249746       -1.0571549521667407      -40.93495352346986       41.0001012646711
0                         0                        65.53122125310787        0.056039421295008995     2.0423356358099767       -1.0855608753422992      -40.86103787190758       40.9264461348996
0                         0                        65.52862418286888        0.05593330750676579      2.0408927246464366       -1.086810119631064       -40.865033750063986      40.930396806572936
0                         0                        66.82849431359998        0.11001167004229503      2.396426059130487        -0.32343894187312117     -42.041268472518986      42.11075545967346
0                         0                        67.03790780024401        0.11881602411863712      2.447194128156399        -0.17951939874595269     -42.044567807047756      42.11610936918136
0                         0                        67.09468782017824        0.1212033409138683       2.4731743146256804       -0.13415723708985183     -42.03442263858136       42.10733042967304
0                         0                        67.09907059384635        0.12138756773078813      2.474086135130932        -0.13100878376332048     -42.034174496459116      42.107126369585515
0                         0                        66.8194001541784         0.10962954189483928      2.3972772044927524       -0.31378092289302373     -42.01870499861255       42.088204597288055
0                         0                        66.5545787740612         0.098508016206674        2.3199067957246493       -0.4757605651069525      -41.941435031651736      42.008240717392866
0                         0                        66.59259389794204        0.10010268885887888      2.3353693321789137       -0.45371797242626144     -41.966549942198185      42.03392824810928
0                         0                        66.54074822221668        0.0979279345654823       2.316700584049814        -0.4813459274510592      -41.938234406858896      42.00493186118332
0                         0                        66.59413760181216        0.10016747317677858      2.335775918568487        -0.4528088343804484      -41.967058248780745      42.03444852783028
0                         0                        66.60201094673964        0.10049790450783894      2.3378496290423243       -0.44817196227222666     -41.96965076223648       42.037102470316356
0                         0                        66.81404900121441        0.10940464518498631      2.3953636702027374       -0.3045213629829959      -42.040958368117536      42.1102443697829
0                         0                        66.79237712219805        0.10849361741163091      2.389504268792784        -0.31880995329959205     -42.03368718221724       42.102757968681765
0                         0                        67.48542268509908        0.1376061360833502       2.576241154672684        0.10009261014967663      -41.891758292649335      41.971019166412795
0                         0                        67.54523069528763        0.1401105242284346       2.5942587276445703       0.135840480363429        -41.85556457505783       41.93610517059138
0                         0                        67.3978788967498         0.13393642222203725      2.5542295419380245       0.0448127929197355       -41.94546032693914       42.02318096929531
0                         0                        67.43613277788938        0.13554055004104107      2.5638479241570096       0.06896833379388667      -41.92199422756865       42.00037705575475
0                         0                        67.58579704305832        0.14180792906078615      2.6046193841314675       0.1578583819472783       -41.8346745566389        41.91597495782288
0                         0                        67.3278904751468         0.1310000107567555       2.5362093014682614       -0.001641457167146143    -41.97007986308279       42.04664034175362
0                         0                        67.33742476404225        0.13140014662619018      2.5383840855884046       0.004558977183968693     -41.96609488940396       42.04279408907903
0                         0                        67.21984609668398        0.12646285437770452      2.5058235902757247       -0.06562635394882932     -42.011688234852954      42.08640406385888
0                         0                        67.17020495468815        0.12437693026129024      2.4855400494322217       -0.09586743779962603     -42.02177491104493       42.09532832248119
0                         0                        67.14100454131878        0.12314975617181943      2.4787177199686585       -0.11434920749661615     -42.03005503723978       42.10323792429683
0                         0                        67.56971177080956        0.14113500959421926      2.601539783922135        0.15128532373176995      -41.84005962442623       41.92113411958279
0                         0                        67.5747026558242         0.14134381992535267      2.6028024712919944       0.1544331691543448       -41.83661516216995       41.91778618362147
0                         0                        66.17807875077825        0.08276002502051162      2.21668899796299         -0.7061129278836518      -41.67945087645623       41.744328129023025
0                         0                        66.20445439291339        0.08385966373297403      2.2252099315493012       -0.6917383574809151      -41.704414067234865      41.769465089776446
0                         0                        66.17543014638048        0.08264963583448637      2.2150985758891935       -0.7105470952985797      -41.68433582744973       41.74919630664946
0                         0                        66.31581789039043        0.08850975358587783      2.2605242236748353       -0.6248214670141579      -41.79434458473355       41.86009568669079
0                         0                        66.28166689211558        0.08708283530026067      2.2524525852791015       -0.6448522144850699      -41.770901393360134      41.836557939692796
0                         0                        66.22259752085938        0.08461644788569876      2.218298246714994        -0.6647366409698634      -41.734865052253554      41.799063181404456
0                         0                        66.07951135466386        0.07865627002149193      2.1866838036308707       -0.7621345736824576      -41.58394945033524       41.64837676372874
0                         0                        66.15949648494716        0.08198562136903527      2.2059717268648456       -0.7165577277840001      -41.66530789916192       41.72981726019105
0                         0                        66.17382812807128        0.08258285815379118      2.2094277146394177       -0.708391321255192       -41.67988561191399       41.74441583867813
0                         0                        65.96771232869258        0.0740135737389766       2.1561323188989525       -0.8299432603427135      -41.463587428573135      41.5279038098351
0                         0                        65.96864039880491        0.07405205534361374      2.1563387143805537       -0.8293802147960818      -41.46463992443438       41.52895414352292
0                         0                        65.93139359838851        0.0725084168368986       2.1471945861752317       -0.852341776968979       -41.429561450361696      41.49392115798364
