% Model:              ElectrodesShort.mph
% Version:            COMSOL 5.5.0.292
% Date:               Mar 27 2026, 14:51
% Dimension:          3
% Nodes:              80
% Expressions:        5
% Description:        Electric potential, Electric field, x component, Electric field, y component, Electric field, z component, Electric field norm
% Length unit:        mm
% x                       y                        z                        V (V) @ TT1=-0.0087266   es.Ex (V/m) @ TT1=-0.0087266 es.Ey (V/m) @ TT1=-0.0087266 es.Ez (V/m) @ TT1=-0.0087266 es.normE (V/m) @ TT1=-0.0087266
0                         0                        69                       0.2219991031749201       -0.15624761204276183     -0.30330187266486064     -43.61554820622183       43.61688263357998
0                         0                        69.25                    0.23282342994062138      -0.23315321608055228     -0.34336236739409287     -42.95438912278569       42.95639420446275
0                         0                        64.25                    0.008123422580259157     1.545982807251102        1.1476510944562044       -41.82158761986653       41.865885359336374
0                         0                        64.5                     0.018682837940753205     1.5087240924661955       1.0862734953520246       -42.55580970022073       42.596398647483014
0                         0                        68.75                    0.21102427389508874      -0.056750511143945914    -0.2263630815060651      -44.16538591350478       44.16600246517665
0                         0                        64.75                    0.029418963948245468     1.4207774274444662       1.0265976435118909       -43.256733007589226      43.29223327237646
0                         0                        69.84403610257883        0.25782439689970654      -0.3930432997457274      -0.5351918545868699      -41.238176114758105      41.243521704972004
0                         0                        70.46606454085786        0.28280350308750546      -0.5926218960913445      -0.6804080252376252      -39.094863908058514      39.10527508894613
0                         0                        70.59544353423496        0.2878332775691638       -0.6293394508896881      -0.71560260234574        -38.64179417719875       38.653543336438396
0                         0                        70.09311013090435        0.267985201377197        -0.47761777899060576     -0.5926004816347046      -40.36963076149513       40.37680499857679
0                         0                        69.86451153967798        0.2586674466037836       -0.40704591314607796     -0.538871781388309       -41.15103586577118       41.15657689845174
0                         0                        70.73308838527079        0.2931158071180088       -0.6307828420785313      -0.7918390223624385      -38.088690351953844      38.102142049472995
0                         0                        70.94241155554735        0.3010077476334047       -0.6987062265214137      -0.8080956580176348      -37.315676063565064      37.33096421289449
0                         0                        71.05477473195776        0.3051773430586242       -0.771874690997862       -0.8120705191298043      -36.94196160619578       36.958947176296654
0                         0                        71.2784339783162         0.31333797298033167      -0.8224851831594044      -0.8650937000903411      -36.03181483789685       36.05158178913841
0                         0                        71.48158479139418        0.3205585804740419       -0.9093044980193667      -0.9478354362663612      -35.15939633680756       35.18392214425614
0                         0                        71.74395443550257        0.32966260918636103      -0.9065053769609697      -0.95115072390265        -34.1881947064206        34.21343445172036
0                         0                        72.00000000000001        0.33828864651599344      -0.9476398154405834      -0.9536966082816001      -33.190729404714574      33.217948113293225
0                         0                        63.851537827190036       -0.008301697271836888    1.645755249759849        1.221955962894495        -40.578791400156135      40.630530370827685
0                         0                        63.665993232160574       -0.015772366837611584    1.6942702803340493       1.257070553651829        -39.94815215848934       40.00382030553455
0                         0                        63.775437275039636       -0.011379923817589028    1.665653542209194        1.2363581056502286       -40.32013663044468       40.37346159280633
0                         0                        63.26559219760393        -0.03146886629035073     1.798980399534507        1.3258265404294667       -38.47149757867516       38.536350014489244
0                         0                        63.4924301673279         -0.022649456173939937    1.7420014285764545       1.2818128088496494       -39.31827536855953       39.37771439547969
0                         0                        62.927746510857894       -0.04426394684963644     1.8987723047818088       1.3924093227748626       -37.21579295066978       37.29020494626812
0                         0                        63.21735599109779        -0.03332285160636991     1.832086027168966        1.3228245935615295       -38.341783646637786      38.40831651246719
0                         0                        62.47941204977881        -0.06055677020987532     1.9939091571116325       1.4902766512517684       -35.41340545826429       35.500787095154706
0                         0                        62                       -0.07707494691453975     2.071505609469307        1.5419965802269893       -33.46883997592297       33.568320456606614
0                         0                        62.08487254643008        -0.07421898085456903     2.058699875845985        1.5278335466732216       -33.831274845632066      33.928272549687016
0                         0                        68.48544107570018        0.1992604190292112       0.06261387756529757      -0.1350042395011002      -44.754001467561125      44.75424889327057
0                         0                        68.25                    0.1886765766827481       0.14227500312949815      -0.06981206758428016     -45.14870027664688       45.148978422238855
0                         0                        65.03249789673897        0.04174643760232754      1.3065319239185698       0.9525360993151253       -44.00346820644571       44.03316437509795
0                         0                        65.25                    0.0513660558611599       1.2416195857146575       0.9045921969495776       -44.44392026655993       44.47046159979396
0                         0                        67.75                    0.16591359822074822      0.3312085270601983       0.09990941865879677      -45.83494667360776       45.836252219752886
0                         0                        67.85585985991392        0.17076023914457075      0.29607503542922586      0.07157346897804473      -45.72645088059494       45.72746541547571
0                         0                        67.87968817037817        0.17184946747115157      0.28736707249493065      0.06319782094118409      -45.695886526789536      45.69683379916109
0                         0                        67.9271036004979         0.17401469777301581      0.2691403991251491       0.0463034160540019       -45.63431110704886       45.635128254182675
0                         0                        67.96402479847448        0.17569871220379962      0.25393644662790393      0.03411549563861627      -45.58627586326466       45.58699589430778
0                         0                        67.99801785102783        0.17724757341130934      0.24132774232240806      0.023544019447661935     -45.54198266732502       45.54262814848304
0                         0                        68.02238403632089        0.1783568723476337       0.2324366844983956       0.016155324568330798     -45.5103443984338        45.510940828232364
0                         0                        65.5900065516046         0.06659768382923714      1.1250446837993593       0.7994419921385116       -45.10934959856522       45.130458165688005
0                         0                        65.75                    0.07383621274679698      1.068998601099338        0.7604529268916451       -45.36535966865185       45.38432443618958
0                         0                        65.53122125310787        0.06394881927158824      1.1438992169125584       0.8148001205844828       -45.01072929996656       45.03263435298702
0                         0                        65.5791845139682         0.06610960949579124      1.1291060743677406       0.8024917555886617       -45.09073098591904       45.112003883550564
0                         0                        65.52862418286888        0.06383192890136241      1.1438360329555834       0.8157978143729601       -45.01531899084958       45.037238267817514
0                         0                        66.82849431359998        0.1233872879262508       0.681449881167179        0.40066003071945033      -46.27843379758492       46.285184856044474
0                         0                        67.03790780024401        0.13307783993357802      0.594917512391417        0.34188431600591684      -46.27102099277481       46.27610825734904
0                         0                        67.09468782017824        0.13570505236697342      0.5832531464279356       0.33207151383794553      -46.25834836035352       46.26321701688008
0                         0                        67.09907059384635        0.13590779117584234      0.5813036403795877       0.3308440389591283       -46.25786361896979       46.26269899488834
0                         0                        66.8194001541784         0.12296658578373934      0.6874858430874156       0.4160315966207975       -46.26044454675795       46.267423191026104
0                         0                        66.59413760181216        0.11254956910103908      0.7717521536095688       0.4878517059322576       -46.20728316076065       46.21630251082725
0                         0                        66.60201094673964        0.11291338485327004      0.7687188084834276       0.4848693058447111       -46.20979130563637       46.21872823175399
0                         0                        66.59259389794204        0.11247823911876459      0.7723468927770654       0.4884364564544512       -46.20679139608046       46.21582695371437
0                         0                        66.5545787740612         0.1107223553567544       0.7816507786719837       0.504798840244689        -46.182293089152665      46.19166585847829
0                         0                        66.54074822221668        0.11008370491147933      0.7877563194796315       0.5090420545600693       -46.17268824901717       46.18221328577832
0                         0                        66.81404900121441        0.12271899709717382      0.6888961134880276       0.42826524973912683      -46.27928520204634       46.286393549202536
0                         0                        66.79237712219805        0.12171611488496033      0.6970657020513933       0.43428118804808946      -46.27219235614017       46.279480184925426
0                         0                        67.48542268509908        0.1537516863071187       0.43253569024716043      0.19579792034378496      -46.07740544902555       46.079851528220416
0                         0                        67.54523069528763        0.1565061621419655       0.41099470806545746      0.17391779291030574      -46.031088521293384      46.0332518349931
0                         0                        67.3978788967498         0.14971505922262415      0.467034471743645        0.223457291391           -46.14220625864017       46.145110821990286
0                         0                        67.43613277788938        0.15147963609953716      0.4519595896564397       0.21137101648334067      -46.11389034365115       46.11658950750342
0                         0                        67.58579704305832        0.15837285545062085      0.39575126577494757      0.15808705704129977      -46.00587003888157       46.0078437727354
0                         0                        67.3278904751468         0.14648462815757204      0.49325319676131585      0.24392173009704265      -46.17462403719583       46.17790274041158
0                         0                        67.33742476404225        0.14692484540386092      0.4892730212065999       0.24072331540559588      -46.16938842478328       46.17260836602555
0                         0                        67.21984609668398        0.1414926818345802       0.5362767291148884       0.28290142618840264      -46.22611765716255       46.23009387402284
0                         0                        67.17020495468815        0.13919743137286764      0.5473902957222974       0.29998582437889354      -46.23888128503273       46.2430942965761
0                         0                        67.14100454131878        0.1378470913387787       0.5597484271286994       0.30958707307337363      -46.24885284447828       46.25327612059165
0                         0                        67.56971177080956        0.15763282537998657      0.40275212694822926      0.16691057063101766      -46.0137912711013        46.01585656656657
0                         0                        67.5747026558242         0.15786246391850517      0.40091787148131175      0.16539232154693195      -46.00938211205596       46.01142610366337
0                         0                        66.17807875077825        0.09338059887585992      0.917567841916707        0.6208439897613687       -45.898854346262354      45.91222286389049
0                         0                        66.20445439291339        0.0945915544893131       0.9117486935219006       0.6107445329492123       -45.93152423404504       45.94463203713067
0                         0                        66.17543014638048        0.09325903443579972      0.917164615478093        0.6165650245467305       -45.90928282928422       45.92258260660642
0                         0                        66.31581789039043        0.09971280812543648      0.874631219954324        0.5742779188395843       -46.02693222849035       46.03882345656793
0                         0                        66.28166689211558        0.09814135838651132      0.8884602498726792       0.5866302708146236       -46.002573104181636      46.01489138198433
0                         0                        66.22259752085938        0.09542504683163601      0.8913414533945456       0.6230368176869661       -45.965220512514065      45.97808348797041
0                         0                        66.07951135466386        0.08886080707809713      0.9515859171576722       0.6517135381740253       -45.799768521409604      45.81428863256827
0                         0                        66.15949648494716        0.09252769982345954      0.9200728530567517       0.624039782157709        -45.88959254795623       45.903057239383166
0                         0                        66.17382812807128        0.09318548841775047      0.9144263786828049       0.6190812305653424       -45.9056871131321        45.91896717589423
0                         0                        65.96771232869258        0.08374738544571877      0.9911777209914572       0.6854211502409984       -45.67009979457268       45.68599622065841
0                         0                        65.96864039880491        0.0837897710255153       0.9908151362786857       0.6851353204357076       -45.671231498629105      45.687115378878524
0                         0                        65.93139359838851        0.08208950964412552      1.0046516464391928       0.6963037679343813       -45.63176417705869       45.648133212417676
