% Model:              ElectrodesShort.mph
% Version:            COMSOL 5.5.0.292
% Date:               Mar 27 2026, 14:51
% Dimension:          3
% Nodes:              81
% Expressions:        5
% Description:        Electric potential, Electric field, x component, Electric field, y component, Electric field, z component, Electric field norm
% Length unit:        mm
% x                       y                        z                        V (V) @ TT1=-0.017453    es.Ex (V/m) @ TT1=-0.017453 es.Ey (V/m) @ TT1=-0.017453 es.Ez (V/m) @ TT1=-0.017453 es.normE (V/m) @ TT1=-0.017453
0                         0                        69                       0.23757857469824123      -1.9181851748185181      -1.8389121501087402      -44.77364134959976       44.8524245940317
0                         0                        69.25                    0.2486765742012499       -2.0055893105320592      -2.0529349389271374      -43.92194744964543       44.015615389488794
0                         0                        64.25                    0.015699810456084443     1.6042645788236278       2.0432467423691207       -43.733712362620366      43.810799115120965
0                         0                        64.5                     0.02674778719507399      1.4590083181562292       1.8622051329633038       -44.50920384706833       44.5720286763971
0                         0                        68.75                    0.22630865622430765      -1.7382346861159022      -1.6582715608608396      -45.38091325241109       45.444456339760926
0                         0                        64.75                    0.037971616796760616     1.2778853060350597       1.6736238894440676       -45.20596938419019       45.25498509272806
0                         0                        69.69577575936562        0.2679890758139043       -2.289610570061342       -2.2600873187650237      -42.64549008530246       42.766670853207756
0                         0                        69.93393703167314        0.2780383995996456       -2.3962440019018203      -2.3935749890693074      -41.770169080492934      41.90725726599054
0                         0                        70.03120899584704        0.28208433383223036      -2.4541539164157484      -2.4509384662052867      -41.41791634464562       41.56288927808853
0                         0                        70.28338644614153        0.292414264353415        -2.5773324167558513      -2.5897372401222896      -40.51050240280513       40.674933144223075
0                         0                        70.37546613214789        0.29612924681175623      -2.642823376392329       -2.638566141418293       -40.23361488458164       40.406562751145685
0                         0                        71.08347036309904        0.3235818375335125       -2.9040830433794866      -2.885109537749713       -37.34329525251434       37.56699689466964
0                         0                        71.22717796973465        0.32890676920974565      -2.940451111598719       -2.9421824823320435      -36.7515165732035        36.98616850836939
0                         0                        71.24586965316796        0.32959301786760686      -2.9477967217376317      -2.9474016825218428      -36.67671800076383       36.91284770237015
0                         0                        71.60319060240089        0.3424429122957076       -3.08107419857447        -3.1004305363443336      -35.166502158190156      35.437107130376916
0                         0                        71.63812251673214        0.3436687701287095       -3.142964627488368       -3.1295803879009583      -35.07765881861303       35.35696039323796
0                         0                        71.99423023839938        0.35589600488005035      -3.2635962009507082      -3.251641075983027       -33.593891992445684      33.90831474800814
0                         0                        72.00000000000001        0.35608930797434196      -3.3385957270295705      -3.24682482293497        -33.49096015887895       33.81320016240675
0                         0                        63.60480563585511        -0.01188099835452073     1.9455709394007847       2.400065402114845        -41.646904207313256      41.76134804179333
0                         0                        63.64589799386007        -0.010166545352098497    1.9168006044563075       2.387608307514684        -41.8017934103261        41.91377733284057
0                         0                        63.790254668855006       -0.004095092658038672    1.837840076633612        2.312465636372828        -42.334000170266314      42.436926418896014
0                         0                        63.3859968964245         -0.020908855199828075    2.073351128836104        2.516986138057133        -40.83145775340308       40.961469045806425
0                         0                        63.271171288934596       -0.025571581958047363    2.135862064018137        2.565269365750381        -40.38259998418426       40.5203269379457
0                         0                        62.98910176688632        -0.0368138116718502      2.2363748973243602       2.7054236086668837       -39.331267873980984      39.48758440520974
0                         0                        62.6115760472328         -0.051363495069030436    2.4327351099533097       2.832084875130999        -37.79836375862208       37.982301242608514
0                         0                        62.65317388273324        -0.049787815785874545    2.4119988942887005       2.8635593553187704       -37.931816821590395      38.11614406303675
0                         0                        62.460356337636796       -0.0570280520098257      2.4379113480786536       2.8099807352574295       -37.11897984148854       37.30493356040781
0                         0                        62.08018497982714        -0.07083338782138641     2.566042046849912        2.9028078515788422       -35.60439288788328       35.814573264582435
0                         0                        62                       -0.07367443431625749     2.5892026418144276       2.91817965640476         -35.25791825806381       35.47309604079891
0                         0                        68.25                    0.2033144284236491       -1.377664782437023       -1.2826985452120425      -46.50908745355764       46.54716416252798
0                         0                        68.48544107570018        0.214211859705105        -1.5296276808503038      -1.4464617886902928      -46.05443112569799       46.10252312899831
0                         0                        65.03249789673897        0.05084881487317418      1.046954809744463        1.4477642432044462       -45.94592935964348       45.98065419716097
0                         0                        65.25                    0.06088956186497923      0.9038408091177594       1.2928287234078335       -46.364671143177475      46.39149776124165
0                         0                        67.75                    0.17983409018368152      -1.0126058466042878      -0.8729072885874984      -47.332889134466996      47.35176587573889
0                         0                        67.85585985991392        0.18483830243426547      -1.0826675407737412      -0.9481905546149392      -47.20115960189776       47.223095007586394
0                         0                        67.87968817037817        0.18596258930761306      -1.099226224279846       -0.9679216174935164      -47.16368153561211       47.18641781850361
0                         0                        67.9271036004979         0.18819711137440773      -1.1345672838642713      -1.0081820810301565      -47.08926781662106       47.11372217874098
0                         0                        67.96402479847448        0.18993468250041354      -1.1626653809840946      -1.038275631318868       -47.03162795195675       47.0574524903974
0                         0                        67.99801785102783        0.1915325145827142       -1.1870902867092763      -1.0656516719429763      -46.97811016288507       47.00518728088295
0                         0                        68.02238403632089        0.1926767281041618       -1.204213125320024       -1.084779584169823       -46.94003973917822       46.96801259062443
0                         0                        65.5900065516046         0.07677316566643527      0.6448039032627264       0.9990371504311497       -47.01268760098992       47.02772206656278
0                         0                        65.75                    0.08431500018956493      0.5262821937661215       0.8792221753876674       -47.249974900746366      47.2610847601103
0                         0                        65.53122125310787        0.07401226854288276      0.6869773072223424       1.0457070336780419       -46.91905918793318       46.935738580549675
0                         0                        65.5791845139682         0.07626448864030677      0.6529141696782119       1.0078149222997297       -46.995326824416395      47.010666142528635
0                         0                        65.52862418286888        0.07389042181314502      0.687788990161188        1.0481349660324932       -46.92534589086904       46.94208908410135
0                         0                        66.82849431359998        0.13581941400183759      -0.3045603881829422      -0.08069097049542506     -47.99680012997975       47.99783423009828
0                         0                        67.03790780024401        0.1458651881936146       -0.4751318728481113      -0.25499341354469607     -47.94519818890272       47.94823042939862
0                         0                        67.09468782017824        0.14858712029042395      -0.5095385580989671      -0.2961071498195338      -47.92050450786712       47.92412817438495
0                         0                        67.09907059384635        0.1487971418468631       -0.5132167015150912      -0.2998122285670206      -47.91905844588581       47.9227445071266
0                         0                        66.8194001541784         0.13538305765025682      -0.2952526187245894      -0.06177467065320741     -47.98269125956057       47.98363940687605
0                         0                        66.81404900121441        0.1351262451372492       -0.2918868878940373      -0.04779515244365484     -48.00176017207684       48.00267140430316
0                         0                        66.59413760181216        0.12457350737449505      -0.1204948275390052      0.1341613761848066       -47.97095029425054       47.97128923024458
0                         0                        66.60201094673964        0.12495120324723964      -0.12669756234647878     0.12673144851913776      -47.97197516470112       47.97230987074783
0                         0                        66.59259389794204        0.12449945458796996      -0.11927867534299708     0.13561814052059162      -47.97074935087812       47.971089345221294
0                         0                        66.79237712219805        0.13408598978733144      -0.27500348401256147     -0.02996103901847391     -47.998715756401175      47.99951290215217
0                         0                        66.5545787740612         0.12267634686477158      -0.09411775533211308     0.1742969888809398       -47.95435210967685       47.95476122191695
0                         0                        66.54074822221668        0.1220132235010594       -0.08218745621482526     0.1841270078306252       -47.94335936556871       47.94378338000701
0                         0                        67.3978788967498         0.16309057219990503      -0.7431580542447875      -0.5647227060622342      -47.733866283833365      47.7429909623519
0                         0                        67.43613277788938        0.16491585565602437      -0.7725706173388716      -0.5964887929292324      -47.69610849227269       47.7060942600158
0                         0                        67.48542268509908        0.16726559342366187      -0.8104685367795996      -0.6374192143001398      -47.647457793649494      47.65861303795442
0                         0                        67.3278904751468         0.15974811985560833      -0.6907606647203011      -0.507108130714677       -47.78364793284527       47.79133099969356
0                         0                        67.33742476404225        0.16020366643560077      -0.6982903695393361      -0.5154936122757476      -47.77598634879416       47.783869817174235
0                         0                        67.21984609668398        0.15458101978397984      -0.6043017770749088      -0.41125264138696593     -47.859986390435836      47.86556807001801
0                         0                        67.17020495468815        0.15220437162183542      -0.574721237458137       -0.3679698253505421      -47.88321846765268       47.88808115924158
0                         0                        67.14100454131878        0.1508059237030102       -0.5509109236590017      -0.34284624926965535     -47.89952961441918       47.90392451228881
0                         0                        67.54523069528763        0.1701135232776445       -0.8547358863775507      -0.6903938394673741      -47.585505839657856      47.598188863707286
0                         0                        67.58579704305832        0.17204307684473405      -0.8847012071250333      -0.7269293258718008      -47.55141414927104       47.56519851809929
0                         0                        66.17807875077825        0.1046560447650931       0.19496047794467586      0.497577569637599        -47.7287732754109        47.73176501451989
0                         0                        66.20445439291339        0.1059152143181827       0.17931762359518189      0.4726190195220852       -47.760064874125504      47.762739874597045
0                         0                        66.17543014638048        0.10452963307593031      0.19538034813595573      0.49357249000195225      -47.74262343129965       47.74557444817484
0                         0                        66.31581789039043        0.11123918286713749      0.09595452987556996      0.3739943247991846       -47.838038490814654      47.83959662952281
0                         0                        66.28166689211558        0.1096057845566405       0.12376386883966006      0.40574174562095777      -47.819388407914346      47.82126986568155
0                         0                        66.22259752085938        0.10678185988242976      0.1504985103580907       0.47566534437663677      -47.7920214034844        47.794625400274576
0                         0                        67.56971177080956        0.17127816771145157      -0.8719274755352728      -0.7094420330880382      -47.56266509625053       47.57594640760175
0                         0                        67.5747026558242         0.17151553313215553      -0.8754980327563544      -0.7134503980099112      -47.55690588480991       47.57031433165486
0                         0                        66.07951135466386        0.09995492549091223      0.2706300054009887       0.5816747494973562       -47.64577459209518       47.650093626295934
0                         0                        66.15949648494716        0.10376906397649904      0.20577458981844643      0.5094377241867463       -47.72541432959494       47.728576795334526
0                         0                        66.17382812807128        0.10445314983714729      0.19415387147353158      0.4964943775492827       -47.73968408563991       47.742660577197064
0                         0                        65.96771232869258        0.09463429582517892      0.35625534331276576      0.6771900526938512       -47.53157229646552       47.53773100613064
0                         0                        65.96864039880491        0.09467840892280663      0.3555178132901391       0.6763898763464575       -47.532576504293026      47.53871817073805
0                         0                        65.93139359838851        0.09290872310171705      0.38443957476362556      0.7082167202690819       -47.497915335339506      47.50475056152377
