% Model:              ElectrodesShort.mph
% Version:            COMSOL 5.5.0.292
% Date:               Mar 23 2026, 08:38
% Dimension:          3
% Nodes:              117
% Expressions:        5
% Description:        Electric potential, Electric field, x component, Electric field, y component, Electric field, z component, Electric field norm
% Length unit:        mm
% x                       y                        z                        V (V) @ SL=0.16525       es.Ex (V/m) @ SL=0.16525 es.Ey (V/m) @ SL=0.16525 es.Ez (V/m) @ SL=0.16525 es.normE (V/m) @ SL=0.16525
-7.62                     -7.62                    62.70220072321982        -0.017400945295243928    -0.4431126813663724      -0.21958704038009103     -29.655172558935902      29.65929579098188
-7.62                     -7.62                    63.29650018050364        7.288130898063681E-4     -0.4554507451489148      -0.2626558020332782      -31.29376055981748       31.298176838703984
-7.62                     -7.62                    68.20349981949639        0.1678761511158375       -0.6343954435704404      -0.8475060492479258      -32.896413248506846      32.91344297849849
-7.62                     -7.62                    68.42251765602222        0.17502429259433566      -0.6811188097775016      -0.8939273503442848      -32.3719070458009        32.39140927348949
-7.62                     -7.62                    68.49914434445516        0.17749921548205516      -0.6638313162208078      -0.8931798528724073      -32.21965645291016       32.2388694623358
-7.62                     -7.62                    63.47470271288036        0.006340622840264452     -0.44702599518785746     -0.27596686860529474     -31.71369044821452       31.718041424370995
-7.62                     -7.62                    63.541528301716305       0.008466745763404915     -0.4591908184614546      -0.29974016970985673     -31.90823149937645       31.912943107693724
-7.62                     -7.62                    67.95847169828374        0.1597633438329479       -0.6233520327079418      -0.8101414116254659      -33.36202379308582       33.37768009364845
-7.62                     -7.62                    68.02529728711956        0.16198788223887098      -0.6324208669261031      -0.8426688834364491      -33.198031901262425      33.2147462600164
-7.62                     -7.62                    63.770807214399134       0.015840888212070397     -0.46389197749485334     -0.3371371374380594      -32.43442389693639       32.43949307159996
-7.62                     -7.62                    63.78640200251065        0.016346850177831967     -0.47061962299084037     -0.32584199351524035     -32.46008576638794       32.46513243151093
-7.62                     -7.62                    67.71359799748939        0.15154490030655035      -0.6111031953946622      -0.7849423412250403      -33.770364408684145      33.785012859103524
-7.62                     -7.62                    67.72919278560069        0.15207129455817153      -0.6068654158067943      -0.7862479738700472      -33.74899348015177       33.76360514566897
-7.62                     -7.62                    63.83132209522131        0.017807022309782167     -0.47850503514061415     -0.33905631169242056     -32.55225100809556       32.55753325952708
-7.62                     -7.62                    63.866114107544796       0.018940844442721053     -0.4752199285875278      -0.3348452149061174      -32.63014339738304       32.635321561649306
-7.62                     -7.62                    64.28070927390185        0.032647571888307664     -0.49669639875759586     -0.3860330935712284      -33.46344316014063       33.46935549116286
-7.62                     -7.62                    64.30060545460225        0.03331379802267741      -0.4975579497669216      -0.3884381160031083      -33.508288738981435      33.51423372685537
-7.62                     -7.62                    64.22698174020212        0.030852619783210487     -0.4990813354274799      -0.3836963108936544      -33.353538305110504      33.359478750556626
-7.62                     -7.62                    64.20597087070226        0.030152190248008606     -0.4930107074980654      -0.3849095877191413      -33.31625168247046       33.322122398162776
-7.62                     -7.62                    67.28996018443982        0.13710201939338187      -0.5882273679077912      -0.7124275578588595      -34.37765948065292       34.39007176249096
-7.62                     -7.62                    67.31172784732131        0.1378499983192741       -0.5865251056425507      -0.7129661498161113      -34.347536641145325      34.35994187633549
-7.62                     -7.62                    67.19848386974918        0.1339515503951215       -0.5894285717533307      -0.7086170175412008      -34.5042934995231        34.51660229541692
-7.62                     -7.62                    67.20827411857651        0.13428929325374497      -0.5900358466068383      -0.7094054397584841      -34.48991286981358       34.502253377795085
-7.62                     -7.62                    67.6864737353945         0.1506284133155031       -0.6174767122146534      -0.7788978949892424      -33.81509092026067       33.829696028289135
-7.62                     -7.62                    64.75483274212718        0.048700727180423536     -0.5137933460612025      -0.44029888170057063     -34.219281756237045      34.22597099602027
-7.62                     -7.62                    64.82546190343723        0.05112119377325655      -0.5155437457367782      -0.4460780780235041      -34.321610994377636      34.328381148181826
-7.62                     -7.62                    64.74396861428794        0.048329035448003335     -0.5127985938706843      -0.43894695788355875     -34.20533394060203       34.211993610688815
-7.62                     -7.62                    64.74720250490763        0.048439658973898625     -0.512966186396909       -0.43920159573357864     -34.209790421206776      34.21645500359399
-7.62                     -7.62                    64.71797366586465        0.047440341642187245     -0.5114545175409404      -0.4354710486721842      -34.16889556621314       34.175497728233964
-7.62                     -7.62                    64.47625304152308        0.039224396331095444     -0.5019242460770936      -0.4042490281453901      -33.79708704217944       33.80323117339835
-7.62                     -7.62                    64.54079347146194        0.0414092884127112       -0.5092182239923702      -0.4140689812426217      -33.90950670714575       33.91585766927966
-7.62                     -7.62                    66.67716912860666        0.11583306298711084      -0.5681795211174574      -0.647053070443576       -34.97506842950949       34.985667312387505
-7.62                     -7.62                    66.69009540111544        0.11628503219796793      -0.5706233597107939      -0.6497370889553054      -34.95867188936296       34.96936530123971
-7.62                     -7.62                    66.71352693679532        0.1171039693963756       -0.5692041200132962      -0.6540558319406955      -34.945958736102625      34.95671343743464
-7.62                     -7.62                    64.39625896315519        0.03652630411511646      -0.4960922298290811      -0.3954776603018608      -33.66231304959134       33.66829116437278
-7.62                     -7.62                    67.0619914603102         0.12923238804151815      -0.586515079256003       -0.6958465975007098      -34.648313195854115      34.66026269005251
-7.62                     -7.62                    67.08372012422905        0.12998498580163742      -0.5872471032479325      -0.6991981059348777      -34.624101094482         34.63613884012659
-7.62                     -7.62                    67.15029136128067        0.13228754666428866      -0.5888269478472239      -0.7064449980082657      -34.552673240034665      34.56491009307459
-7.62                     -7.62                    64.87645061396093        0.052872706670530324     -0.5185935123220702      -0.4523917744070616      -34.381078925553965      34.387965709441794
-7.62                     -7.62                    64.91314355473739        0.054135052917466        -0.5227487713781258      -0.4560185767093401      -34.42508924059585       34.43207789900676
-7.62                     -7.62                    66.59899114510284        0.11309731114798212      -0.5656361803962682      -0.6440510135536215      -35.01286917842225       35.02336012009618
-7.62                     -7.62                    66.5922874638231         0.11286258491120804      -0.5674351148395829      -0.6424112691283383      -35.01711811299526       35.02760676648802
-7.62                     -7.62                    66.53882007330213        0.11098954240956783      -0.5682838187004222      -0.6366236609217637      -35.0459093682785        35.05629757452765
-7.62                     -7.62                    62.56264124379894        -0.021517481502721113    -0.3928966750294869      -0.16444276133565072     -29.310644062443696      29.313738495358635
-7.62                     -7.62                    62.69555109760618        -0.017598264826236127    -0.40739187161770474     -0.1951676629847885      -29.664918158385994      29.6683573508456
-7.62                     -7.62                    62.45032400270297        -0.024786605491845415    -0.38093715581370713     -0.1642594356787228      -28.94081082972777       28.943783888098963
-7.62                     -7.62                    62.31664868084786        -0.028627170112111033    -0.37137641942896416     -0.13924341092923684     -28.533518895849163      28.53627533074659
-7.62                     -7.62                    62.32147378381709        -0.028489458630528878    -0.37205910206033543     -0.1401482372186612      -28.547742358137093      28.550510735368576
-7.62                     -7.62                    61.95612234823891        -0.03871871515981739     -0.3379671765132741      -0.07757125866250547     -27.445532919275607      27.447723336109533
-7.62                     -7.62                    61                       -0.0634937095110748      -0.23192729939960133     0.052982305545803854     -24.37746020087939       24.378621028318367
-7.62                     -7.62                    61.35215064245707        -0.05470934223777967     -0.26466717587640076     0.01202212213089382      -25.51236656191609       25.513742195824214
-7.62                     -7.62                    61.79626782131419        -0.04306541099328943     -0.32235272647546864     -0.062142162802778955    -26.937610518618666      26.939610861730333
-7.62                     -7.62                    61.748767735951844       -0.044341365270699235    -0.32845404119153443     -0.027120496689812867    -26.768710334910594      26.77073907408731
-7.62                     -7.62                    68.55241968840713        0.1792125633157213       -0.6644455161303426      -0.9020523438091104      -32.100823024834924      32.12036776169677
-7.62                     -7.62                    68.66661468184847        0.1828637728373233       -0.6657620454936364      -0.9210704105008922      -31.84610514723883       31.866377623622544
-7.62                     -7.62                    68.81872256003636        0.18767885022501077      -0.6672971837003843      -0.9436906282058999      -31.45696356829083       31.478189186640243
-7.62                     -7.62                    69.21028753088044        0.1997991579954259       -0.7156457071344384      -0.970417509642596       -30.456648756375415      30.480507088799964
-7.62                     -7.62                    69.2139268942028         0.1999100267661264       -0.7192854091461243      -1.0174724145026097      -30.432774574015156      30.45827293014014
-7.62                     -7.62                    68.7391385207925         0.185167103903736        -0.6658516201807458      -0.9346692434308039      -31.66489717511972       31.685685696945516
-7.62                     -7.62                    69.21502023693482        0.19994329853293283      -0.719598672224234       -0.9984191851481796      -30.446896585934752      30.47176028444934
-7.62                     -7.62                    69.83175876017351        0.21818290724894485      -0.779041328094074       -1.0925927966590692      -28.69835732812073       28.729712454925313
-7.62                     -7.62                    70.11749137321016        0.22626746269124026      -0.7998246599895893      -1.1416137647030453      -27.88990087857107       27.92471257669461
-7.62                     -7.62                    70.55208569178832        0.2380809660721218       -0.8684161472521978      -1.199289153066566       -26.491063020860764      26.53241151973729
-7.62                     -7.62                    71.26286019378075        0.2560858927721125       -0.9054790895941949      -1.348777781843303       -24.185906377852277      24.24040348683829
-7.62                     -7.62                    71.44025640575502        0.2603256635784284       -0.9568223250763808      -1.2396078222974793      -23.6678888180042        23.719635275785205
-7.62                     -7.62                    71.57870303655275        0.2635714501246077       -0.9799322899694616      -1.2846293524527113      -23.220742959845268      23.276886464330047
-7.62                     -7.62                    71.80617739723884        0.2687700131490698       -1.0179030550157364      -1.3586018552878016      -22.48606117212651       22.550052608967842
-7.62                     -7.62                    72.00000000000001        0.27306078321959104      -1.0249273760222906      -1.4239239671498112      -21.833170794494258      21.903547259106244
-7.62                     -7.62                    64.05905713757726        0.025277266405251998     -0.48838868195154106     -0.362651234298367       -33.05164838814984       33.05724581080953
-7.62                     -7.62                    67.41057194785463        0.1412398684083759       -0.597930678224543       -0.73436463126626        -34.23351429925644       34.24661025247626
-7.62                     -7.62                    67.43798967555128        0.14217800741901612      -0.5986311097757948      -0.7382431849309583      -34.204825115485136      34.218027754191375
-7.62                     -7.62                    67.35203497147926        0.1392338171076851       -0.5942945415078498      -0.7285042061923832      -34.306707295020175      34.31958726160174
-7.62                     -7.62                    67.66181247634049        0.14979402257185642      -0.6120929531882666      -0.7669359115062662      -33.849145489707325      33.86336514375195
-7.62                     -7.62                    64.70466363500047        0.04698569976538228      -0.5136376912699347      -0.43504545301845354     -34.152551775580044      34.15918443124427
-7.62                     -7.62                    64.54843451696654        0.04166841560209441      -0.5083766532732881      -0.4196057154016728      -33.919016283478896      33.92542087309894
-7.62                     -7.62                    64.57403350902624        0.042537119970916235     -0.5057023076618776      -0.4186652146398302      -33.95555325599274       33.96189942135868
-7.62                     -7.62                    64.6046683550597         0.04357809005094267      -0.5069615542284751      -0.42174239263852087     -34.00263741912437       34.00903156691838
-7.62                     -7.62                    64.69836243702807        0.04677052749451724      -0.5132128757280441      -0.4342623531731462      -34.143118923016104      34.14973705665121
-7.62                     -7.62                    66.81232235129433        0.12055284054511543      -0.5751488930280857      -0.6635397829014096      -34.8724871144326        34.88354108801043
-7.62                     -7.62                    66.84480630584306        0.12168524446620792      -0.5749965661760257      -0.6701102882262262      -34.84385551477408       34.855041758459464
-7.62                     -7.62                    66.8582247416858         0.12215272121190411      -0.5752392835926798      -0.6704510028142181      -34.83384317986446       34.84504319784885
-7.62                     -7.62                    66.89037717593973        0.12327228170659985      -0.5764304127127673      -0.6758298898351427      -34.80990517808964       34.82123657437063
-7.62                     -7.62                    67.04748248146878        0.12872963659646097      -0.5822172811102178      -0.6924949070084594      -34.658701621828754      34.67050798978306
-7.62                     -7.62                    67.05521345168613        0.1289975504932089       -0.5825884382246613      -0.6930998537296276      -34.650554322924876      34.66238179325767
-7.62                     -7.62                    65.07363378434297        0.059675873453265846     -0.522824844483619       -0.4733667319728916      -34.61349122657211       34.62067585667461
-7.62                     -7.62                    65.10556868201223        0.06078174521343359      -0.5248084754582578      -0.47648280598679094     -34.64678885673362       34.65403927226082
-7.62                     -7.62                    65.14597569429849        0.062182546646621026     -0.5274000392874996      -0.48220874057366814     -34.687674796751374      34.69503507529725
-7.62                     -7.62                    65.15420479543513        0.06246803271636775      -0.5272593428823455      -0.4836206250764121      -34.69605078730075       34.70342679849656
-7.62                     -7.62                    65.17838462499049        0.06330724704093213      -0.5284621855697651      -0.48724824714616943     -34.71836114168383       34.725801409043186
-7.62                     -7.62                    65.76501917953274        0.08380624455044858      -0.5444650782725944      -0.5475352434016258      -35.1060384674399        35.1145293851647
-7.62                     -7.62                    65.93115280377914        0.08964241920555159      -0.547476664916644       -0.5644698926345768      -35.14853175784958       35.157326998662455
-7.62                     -7.62                    65.37518350669343        0.07015763851050516      -0.5320153541734385      -0.5081544552062738      -34.8887836326103        34.89653972316623
-7.62                     -7.62                    65.40626807787751        0.0712424425431588       -0.5334455328213892      -0.5127137846084722      -34.90986940340542       34.91770927945069
-7.62                     -7.62                    65.31029655964511        0.0678954598629036       -0.5309317896888928      -0.5007158770119275      -34.843402109090476      34.851044109044494
-7.62                     -7.62                    65.3692160924007         0.06994945662293599      -0.5318339680621591      -0.5072437879649954      -34.88411208301463       34.891853195987466
-7.62                     -7.62                    65.29894519847396        0.06749999941515833      -0.53062291722145        -0.49931418736393596     -34.83290221823985       34.8405216993581
-7.62                     -7.62                    65.59057426003471        0.0776886542317573       -0.5390287282225885      -0.5319485469440934      -35.03723821920184       35.0454217160465
-7.62                     -7.62                    65.63420586721276        0.0792175845784622       -0.5413476846135907      -0.5354841626731819      -35.05050097428212       35.05877093042856
-7.62                     -7.62                    65.6998373756396         0.08151886134533637      -0.5454539473864273      -0.5429445306856451      -35.07741170724698       35.08585357165803
-7.62                     -7.62                    65.75539465506583        0.08346838506576207      -0.5444613819507254      -0.5468705111154009      -35.101998479812195      35.110479957259216
-7.62                     -7.62                    65.94966707267015        0.09029315404685163      -0.5480752607841168      -0.5684981757362166      -35.150205970762215      35.15907502273498
-7.62                     -7.62                    65.96714119294455        0.09090734764059259      -0.5495463264875298      -0.5692733581317952      -35.14990368592946       35.15880831955702
-7.62                     -7.62                    65.99165649838234        0.09176902734764354      -0.5473908645810752      -0.5725224078086768      -35.14963372713879       35.15855756168166
-7.62                     -7.62                    66.06105629734913        0.09420908330603464      -0.5524594610429858      -0.5810529315161546      -35.15732719509708       35.16646825412572
-7.62                     -7.62                    66.07992588264           0.09487248972040295      -0.5551913713292151      -0.5812150194048229      -35.15697994680808       35.16616679903918
-7.62                     -7.62                    66.10230473597991        0.0956592015137423       -0.5498254685625739      -0.579657872066278       -35.1542833640147        35.16336090495289
-7.62                     -7.62                    66.23418597707436        0.10029537130996331      -0.5607902151288613      -0.5905923759605116      -35.15338397258429       35.16281686304259
-7.62                     -7.62                    66.23977770260629        0.10049188371942304      -0.5580179493092317      -0.6007887443873869      -35.142940924459765      35.152505287208236
-7.62                     -7.62                    65.05013213123196        0.05886270268392169      -0.5217526528210357      -0.47117569409794413     -34.5878159360379        34.59495980039103
-7.62                     -7.62                    64.95636757906094        0.055624346563865584     -0.5201919671196862      -0.461664873037428       -34.48281598193771       34.48982940204012
-7.62                     -7.62                    64.98140909584382        0.05648824880369543      -0.5207292481323051      -0.4642134201631407      -34.5147808745371        34.52183007701985
-7.62                     -7.62                    65.00791614834814        0.05740349716643964      -0.5211135778041083      -0.46686460733128854     -34.542661091934214      34.549746124027834
-7.62                     -7.62                    66.2517300393373         0.10091198661557535      -0.5594731424389465      -0.5984359339987009      -35.14472045627778       35.15426733291594
-7.62                     -7.62                    66.35482644082123        0.10453384550435324      -0.5618557117446272      -0.6125998600277569      -35.11749446532282       35.12733092552443
-7.62                     -7.62                    66.41993371532072        0.10681972000259725      -0.5618736033853367      -0.6201027264524015      -35.099310510238524      35.10928406606542
-7.62                     -7.62                    66.47356878402529        0.10870162189305169      -0.5622266358558079      -0.6273570268405138      -35.07496272392393       35.08507782111713
-7.62                     -7.62                    66.48240620517603        0.10901157698766435      -0.5638093616745152      -0.6228285009598267      -35.07712810313893       35.0871872953923
