% Model:              ElectrodesShort.mph
% Version:            COMSOL 5.5.0.292
% Date:               Mar 23 2026, 08:38
% Dimension:          3
% Nodes:              125
% Expressions:        5
% Description:        Electric potential, Electric field, x component, Electric field, y component, Electric field, z component, Electric field norm
% Length unit:        mm
% x                       y                        z                        V (V) @ SL=0.166         es.Ex (V/m) @ SL=0.166   es.Ey (V/m) @ SL=0.166   es.Ez (V/m) @ SL=0.166   es.normE (V/m) @ SL=0.166
-7.62                     -7.62                    68.95349981949636        0.17123570394428916      -0.21176715694292625     -0.8034866759006718      -33.246007208004876      33.25638933260527
-7.62                     -7.62                    69.12186373290743        0.17679862336881635      -0.24815286148893456     -0.8135518200557321      -32.82356464513664       32.83458302491513
-7.62                     -7.62                    69.19134108209315        0.17907310687276107      -0.25087543733789985     -0.8196048367768896      -32.651572455852865      32.66282098064001
-7.62                     -7.62                    69.31730758599143        0.18316640036588738      -0.2653146950279819      -0.8318117944321735      -32.35634735772399       32.36812501647951
-7.62                     -7.62                    63.90018702303068        -0.004572100797887838    0.1789803698191399       -0.4269092452271437      -32.12874008706194       32.132074708278985
-7.62                     -7.62                    64.04650018050364        1.5765605906785997E-4    0.17554469475974854      -0.443050804332753       -32.521658259036826      32.52514974404663
-7.62                     -7.62                    68.70847169828369        0.1630325457604963       -0.18811102399004476     -0.7706659335624213      -33.751999472025304      33.761320769455935
-7.62                     -7.62                    68.77529728711971        0.1652828874753823       -0.20371064887798607     -0.7909574795729668      -33.58640717938037       33.596336987565955
-7.62                     -7.62                    64.22470271288033        0.005986040394082524     0.16323674371848385      -0.41797286722917293     -32.90309748113704       32.906157044016034
-7.62                     -7.62                    64.2915283017163         0.008192135713247986     0.14977525847088202      -0.438589391170801       -33.09410799535611       33.0973530254368
-7.62                     -7.62                    68.4635979974894         0.15471363699911334      -0.15942884545347624     -0.7519806735907082      -34.2021417081653        34.21077885572962
-7.62                     -7.62                    68.47919278560063        0.1552467396879302       -0.16993525320765457     -0.7389081446999484      -34.17821914921399       34.18662790402534
-7.62                     -7.62                    64.52080721439904        0.015834776538212858     0.14068651719869152      -0.45500342421925666     -33.589568572122815      33.59294476037362
-7.62                     -7.62                    64.53640200251067        0.016358775147137627     0.13325255477731446      -0.4438634943040398      -33.61355590363525       33.6167504606222
-7.62                     -7.62                    67.94848386974917        0.13687355931450104      -0.10524116024242858     -0.6841149780201476      -35.03032677569331       35.03716431186771
-7.62                     -7.62                    67.95827411857633        0.1372164486775119       -0.10610340610008961     -0.6844466080713119      -35.015423464941236      35.02227299192963
-7.62                     -7.62                    68.03996018443955        0.14007142734063213      -0.10887130812028545     -0.6857470754891892      -34.88678625726729       34.89369509486674
-7.62                     -7.62                    68.06172784732097        0.1408304584091572       -0.10974346212574915     -0.6854668277755422      -34.85312116971528       34.86003390231162
-7.62                     -7.62                    68.43647373539457        0.1537853805554641       -0.1638948197542902      -0.7463186787564382      -34.25129562443021       34.25981764449886
-7.62                     -7.62                    64.95642950283136        0.030651555462189256     0.09912163773778859      -0.4631584167802245      -34.411393389369046      34.41465292307935
-7.62                     -7.62                    64.97633731836616        0.031336962647071975     0.10122459930064931      -0.4684561521055084      -34.4436910165182        34.44702524786902
-7.62                     -7.62                    65.02655956674401        0.03306915219033305      0.10153713745540038      -0.4658844143241634      -34.53738485492815       34.540676175998826
-7.62                     -7.62                    65.05060545460226        0.03390019497284439      0.10047774470473314      -0.4664109410840851      -34.58511563658675       34.58840641803582
-7.62                     -7.62                    64.58785052231525        0.0180906717054692       0.12136774374458525      -0.4521707579110199      -33.71229727969846       33.71554799196204
-7.62                     -7.62                    64.6161141075454         0.01904428266271979      0.12938816331314396      -0.44726126535886834     -33.77280433707641       33.77601362989338
-7.62                     -7.62                    67.42717117208967        0.11845514089873288      -0.05530259487824196     -0.6309378109996828      -35.592197912315896      35.597832702677465
-7.62                     -7.62                    67.4354054730881         0.11874817818494803      -0.05635213268575967     -0.63152930589942        -35.58285263191476       35.588501039684594
-7.62                     -7.62                    67.58500132174326        0.12406168266075568      -0.06937971033215717     -0.6465060444115807      -35.4486442659138        35.45460708992514
-7.62                     -7.62                    67.82012664649412        0.13236703493984203      -0.09065378920567468     -0.6696334668504846      -35.18361940899816       35.19010801072733
-7.62                     -7.62                    67.8337197525627         0.13284533055426068      -0.08489958513257534     -0.6759870842448663      -35.17757962313391       35.1841764806219
-7.62                     -7.62                    67.8119917738804         0.1320807805106163       -0.09095361063884866     -0.6696397027589391      -35.19573368907862       35.20222094986825
-7.62                     -7.62                    67.90029038896874        0.13518395080191975      -0.10241021117042237     -0.6827323535460152      -35.0879147817883        35.094705798054044
-7.62                     -7.62                    65.42060993345751        0.04679812833279565      0.07477032181832755      -0.4864124827726215      -35.11761559609386       35.12106366355434
-7.62                     -7.62                    65.48641455862538        0.04911168411544217      0.0736794208370597       -0.48468076188888887     -35.1979662920489        35.20138030240023
-7.62                     -7.62                    65.57547056711758        0.05225149643773125      0.06816455171052382      -0.4933388429787051      -35.31330009663286       35.31681176628139
-7.62                     -7.62                    65.09693143159885        0.03550386328310336      0.10179846627989253      -0.46965091135376724     -34.652720404686704      34.65605237691769
-7.62                     -7.62                    65.12095137471005        0.0363366621054867       0.10059878715701753      -0.4714909990755274      -34.68954317652759       34.69289307155514
-7.62                     -7.62                    65.22949270459796        0.04011089022566199      0.08752251235958397      -0.47547016098650374     -34.854635971493295      34.857988765410326
-7.62                     -7.62                    67.37171614472871        0.11648016409424432      -0.05201110976383916     -0.6276676902674581      -35.63683632059946       35.642401361666714
-7.62                     -7.62                    67.41286509176015        0.11794587480889107      -0.054203780293647696    -0.6307449037696102      -35.60353806844665       35.609165957303176
-7.62                     -7.62                    67.30458814974125        0.11408625293431554      -0.04721574228767622     -0.6199020677596536      -35.68514283941312       35.69055795822264
-7.62                     -7.62                    65.73730017136293        0.05797904547518275      0.05580392149394697      -0.5045395338478329      -35.47583130333655       35.479462804299374
-7.62                     -7.62                    65.74693472941168        0.05832088983518763      0.054638565908277315     -0.5054673958246951      -35.48630343043625       35.48994524957904
-7.62                     -7.62                    65.7571134720482         0.0586821523391138       0.052843273109743905     -0.50564360313248        -35.49697642764698       35.50061694350997
-7.62                     -7.62                    69.32184376469097        0.18331324569392812      -0.2615837532500791      -0.8626263164943708      -32.36705998617982       32.37960966983444
-7.62                     -7.62                    69.32514971141177        0.18342011886511764      -0.2687992026354351      -0.8601806615110235      -32.32328408106194       32.33584477892618
-7.62                     -7.62                    69.52896162249787        0.18995766352352325      -0.3116243383999677      -0.8743464525877584      -31.8042627213344        31.817805057783243
-7.62                     -7.62                    69.54872181100426        0.19058561925534198      -0.31364500146474317     -0.8764992660399038      -31.75340340274061       31.76704663338239
-7.62                     -7.62                    69.76824492279073        0.19749420829365735      -0.3360932814340636      -0.9004156526644636      -31.188388758398176      31.203193752985705
-7.62                     -7.62                    69.77855735419072        0.19781618998126238      -0.37066109158196525     -0.899211654358453       -31.208483760722828      31.223635757026237
-7.62                     -7.62                    69.85617261301289        0.2002301549117962       -0.4062304035229367      -0.9208494847001809      -30.994875917941833      31.011212812188266
-7.62                     -7.62                    70.0531330310291         0.20626811675102102      -0.37109256800440704     -0.9548288897445545      -30.370382672366         30.387654591440057
-7.62                     -7.62                    70.47550671237624        0.21884330575665187      -0.4546724068300705      -0.9963806142687162      -29.13080958107855       29.151390501570955
-7.62                     -7.62                    70.78713550270446        0.22777508656113077      -0.5069295254091344      -1.0698875776718282      -28.192397270712405      28.217244742218547
-7.62                     -7.62                    71.2597539318399         0.2407327576005098       -0.5373888602287016      -1.164252587741414       -26.668531655216007      26.69934178065854
-7.62                     -7.62                    71.5527484027347         0.24840980944360672      -0.5797278145842739      -1.192484953498223       -25.728341494533943      25.762485531537507
-7.62                     -7.62                    71.98225241961825        0.25915241617020396      -0.633314932194736       -1.2589061236748602      -24.29497053195057       24.335807477458264
-7.62                     -7.62                    71.53396052725871        0.24792573128600534      -0.5784097262531986      -1.1862770788138874      -25.79536823390977       25.829108258748402
-7.62                     -7.62                    72.00000000000001        0.2595821555251628       -0.6604781421544033      -1.2548274320343609      -24.18718948211093       24.228721763724707
-7.62                     -7.62                    63.63695465739872        -0.012940583410818034    0.18787185989628874      -0.4211749399902516      -31.453734604750014      31.457115327885123
-7.62                     -7.62                    63.54330719285492        -0.015874575523700377    0.19439521925750192      -0.4195159079224715      -31.197199327484004      31.200625458106423
-7.62                     -7.62                    63.37886354283151        -0.02096635665754983     0.20038501523296492      -0.42049140254426476     -30.730167683946853      30.73369767954118
-7.62                     -7.62                    63.27203922918792        -0.02422949398761444     0.2108093027286202       -0.42633782537933085     -30.400034790067465      30.403755026982743
-7.62                     -7.62                    63.23177821731897        -0.02545170127711929     0.20551102007564737      -0.4290369284920619      -30.297919025420907      30.301653498387584
-7.62                     -7.62                    62.46105128472628        -0.047909744802365824    0.23396369667445782      -0.42211673309751774     -27.953725293032477      27.957891181311336
-7.62                     -7.62                    62.66957026095972        -0.04201462043298378     0.23222847979153016      -0.4030105342144239      -28.589084151633777      28.592867645388626
-7.62                     -7.62                    62.865637152313056       -0.036349133943160424    0.22912720970416078      -0.41452501274542897     -29.198131422568938      29.2019726873721
-7.62                     -7.62                    62.33468296262407        -0.05141272384221416     0.2566938912196548       -0.43862338448888494     -27.514873661073764      27.519566762797353
-7.62                     -7.62                    62.3157299619775         -0.051934019636657135    0.2766869210967293       -0.45424787776074993     -27.47463927961048       27.479787123110526
-7.62                     -7.62                    62.29711713957138        -0.052444851519746476    0.277132856385613        -0.4562542787731765      -27.41568008657108       27.42087681304515
-7.62                     -7.62                    62.205602136645915       -0.054941291008022086    0.29426632800198504      -0.4561041091046132      -27.122235801485786      27.127666661575137
-7.62                     -7.62                    62.16376575296322        -0.056073006189829855    0.29359693943561993      -0.45537167234828857     -26.980403724279377      26.98584346741698
-7.62                     -7.62                    61.89016793172952        -0.06332850708144705     0.2858796884003585       -0.43953178138866456     -26.057305851775325      26.06258052526755
-7.62                     -7.62                    61                       -0.085200486914171       0.309370861814827        -0.3789201929592423      -23.079247099806626      23.084430630550646
-7.62                     -7.62                    68.10203497147864        0.1422344994938918       -0.11977561457723596     -0.7001914182682185      -34.80478849642017       34.81203694845514
-7.62                     -7.62                    68.16057194785412        0.14426940508692698      -0.12678814549015271     -0.705834967238939       -34.72112910007395       34.72853415015982
-7.62                     -7.62                    68.18798967555114        0.14522084520409068      -0.12918026918958958     -0.7093201488210923      -34.6874811798326        34.694973313388104
-7.62                     -7.62                    68.4118124763405         0.15294017561584203      -0.15671762763338393     -0.7342220939330275      -34.28967739853776       34.2978952502019
-7.62                     -7.62                    64.87341688401108        0.027800659915457954     0.10993270931659005      -0.46102657362266974     -34.27161863732003       34.27489569238783
-7.62                     -7.62                    64.80904271904187        0.025598012376166036     0.11361358938777011      -0.45905831480207127     -34.16662323265271       34.16989589838
-7.62                     -7.62                    67.60265027426342        0.1246871772670723       -0.07164909684905751     -0.6471637977433602      -35.43313816305283       35.43912011684517
-7.62                     -7.62                    67.60657334842038        0.12482617733476464      -0.07232129078909111     -0.6497759455346568      -35.425695861942586      35.431728245336174
-7.62                     -7.62                    67.79293826089994        0.131409958836809        -0.08889622690156784     -0.668455132765235       -35.218753602064055      35.22520887214974
-7.62                     -7.62                    67.79512456789968        0.13148695495683818      -0.08913230265648053     -0.6685910569736464      -35.21611216807          35.22257109869933
-7.62                     -7.62                    67.63179723824838        0.12571940947505544      -0.07261968076159064     -0.652920913696672       -35.405000017557796      35.41109438552901
-7.62                     -7.62                    67.62034166335499        0.12531383412779873      -0.07370345743515827     -0.6505114814763147      -35.411846037728196      35.41789713106831
-7.62                     -7.62                    67.63148895426994        0.12570849676262943      -0.07468625993396927     -0.6508109073328683      -35.39841138452458       35.40447233645159
-7.62                     -7.62                    65.35730900653422        0.0445776358373635       0.08157711750399521      -0.48401844384971326     -35.03493322381888       35.03837146154962
-7.62                     -7.62                    65.38244578234698        0.04545872550364824      0.07975281388824129      -0.4848058247638356      -35.06934491889492       35.07278646243365
-7.62                     -7.62                    65.31287097163515        0.04302212280118406      0.08524479145755137      -0.4815502791033879      -34.97324961827742       34.976668597911335
-7.62                     -7.62                    65.30135887598709        0.04261959938651551      0.08322701722806158      -0.478817687526119       -34.96006864866172       34.96344652681461
-7.62                     -7.62                    66.37728205414075        0.0808343367886085       0.017523003243383073     -0.5420588205575783      -35.87641005418757       35.8805090989077
-7.62                     -7.62                    66.42325281126138        0.08248383439071577      0.01596275261562141      -0.5456571581983525      -35.88649773427528       35.890649425385284
-7.62                     -7.62                    66.54982498380498        0.08702782411992238      0.004717429480251667     -0.5520028707022959      -35.914475899491975      35.91871808066923
-7.62                     -7.62                    67.16482852975298        0.10909247098870317      -0.03636061923526768     -0.6072824283688192      -35.77415732932907       35.7793298800582
-7.62                     -7.62                    67.21588893271921        0.110918379182376        -0.04023599485997664     -0.6127299399559334      -35.744236975201886      35.74951095964797
-7.62                     -7.62                    67.14552488955226        0.10840179452037892      -0.03476046739586991     -0.6053607797767597      -35.78503680635072       35.79017364019992
-7.62                     -7.62                    67.10772384006403        0.10704874076649248      -0.031881027536854845    -0.6026664938482895      -35.80353048154458       35.808616536325665
-7.62                     -7.62                    67.25669846095015        0.11237652765923241      -0.04434625426847916     -0.6164750061553619      -35.71750429580335       35.722851525938026
-7.62                     -7.62                    66.9797018000361         0.10246144240756466      -0.021837038195607228    -0.5915712129204813      -35.85689024319105       35.86177646559695
-7.62                     -7.62                    67.00399395265384        0.10333236375775476      -0.02443027386068053     -0.5950131311978879      -35.84703520916176       35.85198140621327
-7.62                     -7.62                    67.0282498784181         0.10420174743941206      -0.02629543942649093     -0.5963596396485116      -35.84240909711025       35.84737962745042
-7.62                     -7.62                    67.0834767986979         0.10618046727703401      -0.030176897238632705    -0.6007423094803812      -35.8153921200024        35.820442692365724
-7.62                     -7.62                    66.6732944538392         0.0914626711561897       0.0019735988143452232    -0.5677140102012572      -35.913857785661435      35.918344674291234
-7.62                     -7.62                    66.69789485428407        0.0923461631002325       -0.0024686169222150056   -0.5712886261807171      -35.9204902960646        35.92503305354282
-7.62                     -7.62                    66.6222737256912         0.08963030561899644      0.005615620686910461     -0.5666760658467069      -35.914420786836516      35.918891599724425
-7.62                     -7.62                    66.72809375549159        0.093430822528057        -0.010045099023557214    -0.5622690965625452      -35.90767032770937       35.91207367730835
-7.62                     -7.62                    66.82505416407751        0.09691216182652612      -0.008640122176256426    -0.5790397818457365      -35.903966770375256      35.90863672668293
-7.62                     -7.62                    66.86623988304987        0.09839066675369919      -0.012355018228573655    -0.5827846921262818      -35.89300383321873       35.89773690381201
-7.62                     -7.62                    66.35157533759322        0.07991220699112063      0.024191257978628755     -0.5422066684553215      -35.86915991300714       35.87326589750588
-7.62                     -7.62                    66.27851896195665        0.07729235190759509      0.027064882680718938     -0.5359310569359934      -35.84344384603531       35.84746045886026
-7.62                     -7.62                    66.28568523182378        0.07754922331966368      0.027160197358881533     -0.542119171854381       -35.855832598777134      35.859940912170245
-7.62                     -7.62                    66.6185852364477         0.08949783966232389      0.004432964313267007     -0.5663624849867404      -35.9132589998581        35.91772484590946
-7.62                     -7.62                    66.10776544748566        0.07117855880490628      0.034039209656649305     -0.5318257874969561      -35.75670131950973       35.7606723453107
-7.62                     -7.62                    66.20311291315357        0.07459058065690616      0.030760551698598704     -0.5336034831753587      -35.80998343223705       35.81397202637386
-7.62                     -7.62                    66.01192937279383        0.06775439838403105      0.04143668393578537      -0.5188121430289243      -35.70413885679853       35.70793209560139
-7.62                     -7.62                    66.04838338834462        0.06905632237828517      0.039786728563974805     -0.5307829205321468      -35.72065926108263       35.72462472215582
-7.62                     -7.62                    66.00724690305208        0.06758722379798277      0.04192778853530399      -0.5183257963154801      -35.700310191811894      35.704097346973576
-7.62                     -7.62                    65.98701834281064        0.06686522521353747      0.04282236848712273      -0.5194865953642136      -35.68587973743303       35.68968636332546
-7.62                     -7.62                    67.26947624974291        0.11283286321984091      -0.045111882794969915    -0.6173894048590682      -35.70886970524285       35.71423498249979
-7.62                     -7.62                    65.78380907454071        0.05963007431829898      0.052807318811517234     -0.5057611242270852      -35.51581793989976       35.519458144344
-7.62                     -7.62                    65.79247477228928        0.059937903906691646     0.055071451579280506     -0.5072739041524841      -35.52662373498424       35.5302878356728
-7.62                     -7.62                    65.845229382109          0.06181341746653796      0.05359123812530697      -0.5101815001369268      -35.57248374612587       35.57618244067616
-7.62                     -7.62                    65.77569988349771        0.05934209994280233      0.05119780222739223      -0.5080087865960365      -35.517011988730225      35.52068178892148
-7.62                     -7.62                    65.77980673573688        0.05948793533310214      0.05316686526447256      -0.505315643960472       -35.512144540887704      35.515779317206224
