% Model:              ElectrodesShort.mph
% Version:            COMSOL 5.5.0.292
% Date:               Mar 23 2026, 08:39
% Dimension:          3
% Nodes:              129
% Expressions:        5
% Description:        Electric potential, Electric field, x component, Electric field, y component, Electric field, z component, Electric field norm
% Length unit:        mm
% x                       y                        z                        V (V) @ SL=0.167         es.Ex (V/m) @ SL=0.167   es.Ey (V/m) @ SL=0.167   es.Ez (V/m) @ SL=0.167   es.normE (V/m) @ SL=0.167
-7.62                     -7.62                    70.18382846549673        0.17701596860737065      -1.783490495688433       -0.826739255179632       -31.940312959730257      32.00074886795274
-7.62                     -7.62                    70.2988400099032         0.18067243915744488      -1.8000903410399358      -0.8528349096959369      -31.645904557588135      31.70853083772692
-7.62                     -7.62                    69.95349981949637        0.16958885136369165      -1.7605587468501582      -0.7946467705301927      -32.523345747997446      32.580654524346315
-7.62                     -7.62                    64.91849327802387        -0.002310205221691855    -1.6424195666339623      -0.5951860898702721      -31.480709744972597      31.5291432576537
-7.62                     -7.62                    65.04650018050364        0.0017434354485956814    -1.652606679522195       -0.6196309948667897      -31.843730276517856      31.892604304613023
-7.62                     -7.62                    64.85787305722475        -0.0042135915742464395   -1.6306989897575153      -0.5890994094867266      -31.318427894040965      31.366385559443998
-7.62                     -7.62                    64.7735289007593         -0.006846072112600285    -1.6245376589422484      -0.5924823627903057      -31.110449966581285      31.158470037514626
-7.62                     -7.62                    69.70847169828372        0.16156092706782055      -1.7692961408900487      -0.7744995047540328      -33.04766692505078       33.104056360303154
-7.62                     -7.62                    69.77529728711963        0.16376394664485727      -1.7809325283696467      -0.7872349433985164      -32.877436540391024      32.93504657646854
-7.62                     -7.62                    65.22470271288034        0.0074514703055532806    -1.648298840992855       -0.6213020014171258      -32.23051361460785       32.27861386595784
-7.62                     -7.62                    65.29152830171628        0.009612587530416609     -1.683128504829071       -0.6236158641622289      -32.421481792908104      32.471130253775804
-7.62                     -7.62                    69.46359799748936        0.15341310731335628      -1.7730326183047396      -0.75609883500141        -33.50941627329998       33.564807598006055
-7.62                     -7.62                    69.47919278560087        0.15393553360011675      -1.7752403769451064      -0.7580360104507378      -33.48217822999834       33.5377750605858
-7.62                     -7.62                    65.52080721439904        0.017101821303783647     -1.699991035497142       -0.637905456546136       -32.924290268598384      32.974320047321434
-7.62                     -7.62                    65.53640200251068        0.017615454993914516     -1.7066761015990686      -0.6278252451057984      -32.9451867270158        32.99533658461601
-7.62                     -7.62                    68.94848386974917        0.13592425432801594      -1.7856432676816212      -0.7174298012326972      -34.36015272828581       34.413998938081
-7.62                     -7.62                    68.95555918858295        0.1361673280677649       -1.7860209604215243      -0.7177742517349657      -34.34712685685318       34.40102024749097
-7.62                     -7.62                    69.0213606047428         0.13842384700752897      -1.7787971197371348      -0.7155508555426309      -34.239024631025316      34.29266597836936
-7.62                     -7.62                    69.04238715977164        0.13914341909426559      -1.777585116001788       -0.7137045750852735      -34.20537365761032       34.25896627339872
-7.62                     -7.62                    69.43240842126633        0.1523672103743147       -1.7780561336854817      -0.7497467292789963      -33.563339986341816      33.6187655158748
-7.62                     -7.62                    65.96609142517451        0.03195833106480189      -1.7408844069620528      -0.6387362150790707      -33.78157227509102       33.832429529196624
-7.62                     -7.62                    65.9763373183663         0.03230448450613603      -1.7451621728227842      -0.6425111378528143      -33.79298618223269       33.84411805150617
-7.62                     -7.62                    66.02655956674427        0.03400401269859638      -1.7459224039152854      -0.6390854991846471      -33.8874181731752        33.93838219125075
-7.62                     -7.62                    66.05060545460226        0.03481941544665847      -1.7469966546903475      -0.6386845266635213      -33.93268935198748       33.9836331473635
-7.62                     -7.62                    65.56135366348929        0.018438033800563563     -1.6991476679176465      -0.6304008081905721      -33.000424465033504      33.05015163125184
-7.62                     -7.62                    68.43147440800077        0.11800131946462539      -1.7909505154547105      -0.6921900745447829      -34.93338921006489       34.9861159969206
-7.62                     -7.62                    68.43601077544764        0.11815977947038805      -1.7908151049132073      -0.6920451922012205      -34.92868083908229       34.98140492385216
-7.62                     -7.62                    68.42716912860662        0.11785089983848696      -1.7897599266190412      -0.6910308464524704      -34.94175914608934       34.99438949958976
-7.62                     -7.62                    68.47595754999335        0.11955450979741848      -1.7898183649476778      -0.695922618753599       -34.89688628773423       34.94968427110394
-7.62                     -7.62                    68.81061704645948        0.13117533166392217      -1.7881478821100245      -0.7127298216238387      -34.532948430186934      34.5865578502527
-7.62                     -7.62                    68.8337201242326         0.13197284471230752      -1.7918679640009145      -0.7158299301827071      -34.50363556600678       34.557547230108305
-7.62                     -7.62                    66.51101061055036        0.05060013006852393      -1.7722251301272536      -0.6455132972336202      -34.58812458357019       34.63951257649756
-7.62                     -7.62                    66.57546190343724        0.052832089440798015     -1.7739623523276151      -0.6458750979794559      -34.66790893008101       34.719274281788444
-7.62                     -7.62                    66.4932269876377         0.04998523381893002      -1.772750206672967       -0.6460619441624544      -34.565201027364424      34.61666017097936
-7.62                     -7.62                    68.9002913612897         0.13426695785814685      -1.7874325031069134      -0.7187981997244606      -34.41853957134424       34.472415813651345
-7.62                     -7.62                    66.40694827648551        0.04700742033339689      -1.7664922230947582      -0.6473343214428837      -34.45606452632751       34.50738934113123
-7.62                     -7.62                    66.46604696546387        0.04904610284539582      -1.7694166318142095      -0.6449939878808095      -34.534386785226445      34.58570113635064
-7.62                     -7.62                    66.392821411938          0.046520804165350337     -1.7663833268223925      -0.6505756242965504      -34.43618574357993       34.48759555646845
-7.62                     -7.62                    66.38846932709879        0.046370930890739945     -1.7587839130397533      -0.6441195521726399      -34.43431762893067       34.48522062304871
-7.62                     -7.62                    66.39215560996027        0.04649787383407328      -1.759267162915016       -0.6430570086425087      -34.43976002856439       34.49065980946112
-7.62                     -7.62                    66.1268927101491         0.03741242677491243      -1.7535097514384859      -0.6403009411185536      -34.046935051660114      34.09807279239619
-7.62                     -7.62                    66.14119088495958        0.03789938858891174      -1.7546826901824204      -0.6393709072921325      -34.06830275035546       34.119451326042665
-7.62                     -7.62                    68.39071698568856        0.1165767128481952       -1.7940104436553184      -0.6960872828182403      -34.96780568973678       35.02071452344217
-7.62                     -7.62                    68.34584655441266        0.11500691177130332      -1.7938344042020162      -0.6939915588051804      -35.0027139714162        35.05551955852554
-7.62                     -7.62                    68.28426801104263        0.11284999157854657      -1.7936999721719644      -0.6899606526761772      -35.052308344347466      35.10495300608765
-7.62                     -7.62                    66.61988351817384        0.05437309772905853      -1.77528702571772        -0.6487392375011072      -34.716343636296116      34.76775837029694
-7.62                     -7.62                    66.6926314414202         0.05690136426110509      -1.7786566878395575      -0.6507166707556777      -34.79272584065474       34.8442365854349
-7.62                     -7.62                    66.61222840695633        0.054107392598676585     -1.7772482964455758      -0.6463531038861188      -34.70502444324643       34.756511698507005
-7.62                     -7.62                    70.58124465272974        0.18951619904169975      -1.7793973743173694      -0.8489046837303569      -30.950607119939974      31.01333544252643
-7.62                     -7.62                    70.83143664777134        0.19717438287247613      -1.7801287057844126      -0.8653330564828954      -30.307725262015914      30.37228786353832
-7.62                     -7.62                    71.04189855536467        0.20348639669365484      -1.781161058160258       -0.900743663118277       -29.67475701572525       29.74180690213843
-7.62                     -7.62                    71.27648885380353        0.21036505098290137      -1.7699526510111339      -0.9376806228469619      -28.97884235709168       29.047982403162784
-7.62                     -7.62                    71.84541043115063        0.2263516002296055       -1.7491859813088766      -0.9965510411050786      -27.189653479722438      27.264079333843597
-7.62                     -7.62                    72.00000000000001        0.23051780566547622      -1.7767510866582938      -1.0430581367861862      -26.704619589458076      26.78397883284568
-7.62                     -7.62                    71.42308844993225        0.2145806830451236       -1.7758128165199611      -0.961702441777561       -28.554151995538575      28.625477793919128
-7.62                     -7.62                    64.71118398545195        -0.00878069064119404     -1.614903695231766       -0.5900640428268211      -30.970491151498333      31.018178729328174
-7.62                     -7.62                    64.15553284203529        -0.025540439688535244    -1.5487639081213054      -0.5804906888787826      -29.37336940377252       29.41989920467869
-7.62                     -7.62                    64.43077781663538        -0.01734919541754387     -1.6078111102363408      -0.5875443457933827      -30.14629509068272       30.194856724597887
-7.62                     -7.62                    64.70189344878182        -0.009068296203165028    -1.614465805987971       -0.5899641478160582      -30.943168345802174      30.99087325021782
-7.62                     -7.62                    64.52926306412883        -0.014366205582183407    -1.6063292481900153      -0.5881079671946061      -30.435474697459043      30.48350840527281
-7.62                     -7.62                    64.48379601701596        -0.015746775933872595    -1.6077443326387542      -0.6111517557482742      -30.2992751807511        30.348054711736726
-7.62                     -7.62                    64.49465408731923        -0.015417616773569311    -1.6111438944079346      -0.6134751643383758      -30.329233253867613      30.378191621511263
-7.62                     -7.62                    63.99829062461447        -0.030117403165102856    -1.5312541289372916      -0.5860922089348541      -28.87345401771461       28.91996871018089
-7.62                     -7.62                    63.91665783450581        -0.03246387120964554     -1.5168096611301252      -0.5832528571386852      -28.614916081794135      28.661024367799186
-7.62                     -7.62                    63.95965733253049        -0.031230580865813984    -1.5252397883143112      -0.5861725226266952      -28.752727582931477      28.799119745165967
-7.62                     -7.62                    63.56064139710764        -0.04245496870469963     -1.4662352209083522      -0.5408481254672672      -27.51225359649724       27.55660465978762
-7.62                     -7.62                    63.06583723858941        -0.055659935123081455    -1.373231096492364       -0.4798723240380234      -25.854995625790337      25.89588461322356
-7.62                     -7.62                    62.88826718450785        -0.060197941160519276    -1.3376056907799039      -0.4855306794368574      -25.257294235354557      25.29734849971348
-7.62                     -7.62                    62.738323431978465       -0.06394727549368036     -1.3075228761660265      -0.49030870941518323     -24.75258306748603       24.791941981519358
-7.62                     -7.62                    62.34360632109815        -0.07343508192953149     -1.3276235093258792      -0.4245991747637614      -23.377398057008534      23.418915614467533
-7.62                     -7.62                    62.150806422367104       -0.07788134722654287     -1.3380190248581023      -0.3732075728019266      -22.734439585976368      22.776837403197316
-7.62                     -7.62                    61                       -0.10190217180239859     -1.0689231744206076      -0.3428802427162445      -19.011633617972343      19.044746688724288
-7.62                     -7.62                    61.15723916570774        -0.09887280763975145     -1.1056907890218657      -0.3470239839990139      -19.52029510362578       19.554664371935278
-7.62                     -7.62                    69.19459113245019        0.14433407037718793      -1.7787076698696467      -0.7344549417194344      -33.99063943141749       34.045070039477125
-7.62                     -7.62                    69.30917196974414        0.14821723543523949      -1.7781901303995227      -0.7415247629549384      -33.78645608154494       33.84134207835279
-7.62                     -7.62                    65.862550456851          0.02846992357436279      -1.734738650059593       -0.6326802736413057      -33.6108124430057        33.66149603911823
-7.62                     -7.62                    65.94311537379262        0.031182625273381923     -1.739115871575315       -0.6381612628392439      -33.74141316107472       33.79222892794289
-7.62                     -7.62                    65.60314074198486        0.019818946669526737     -1.707154173033274       -0.6244878767936228      -33.08820338190641       33.13809836911542
-7.62                     -7.62                    65.67461466601465        0.022188999871411163     -1.719241110581606       -0.6317838634177804      -33.230353627602206      33.28079540909267
-7.62                     -7.62                    68.54308851692784        0.12189494241999732      -1.791729199274961       -0.6973681558393423      -34.830475895591306      34.883501357829324
-7.62                     -7.62                    68.57029817436758        0.12284230152834227      -1.7884651145699308      -0.7000490274342042      -34.804633292408965      34.85758417799357
-7.62                     -7.62                    68.63536256701823        0.12510483417040547      -1.7855896733407803      -0.7045046162569406      -34.74285804317549       34.79584518651778
-7.62                     -7.62                    68.64956400980148        0.12559802995052616      -1.7880035845300881      -0.7038293321951983      -34.721036200282235      34.77416695434213
-7.62                     -7.62                    68.76612778126245        0.12963778709075535      -1.7872251524038916      -0.7086425257648159      -34.58764855128379       34.64104184752288
-7.62                     -7.62                    68.77754148088054        0.1300324831517599       -1.7874717544186183      -0.7122683058195207      -34.57227033004233       34.62577446333648
-7.62                     -7.62                    68.73012773665246        0.12839186447111897      -1.7867484825509337      -0.707488022257337       -34.630190141323         34.68346981871509
-7.62                     -7.62                    68.79637114602447        0.13068325691705943      -1.7879146499320768      -0.7126719560449146      -34.54991111347408       34.60348101074998
-7.62                     -7.62                    68.79780043753452        0.1307326375987852       -1.7876676577910757      -0.712480651739952       -34.548361256144744      34.60191685180027
-7.62                     -7.62                    68.80165739217406        0.13086588011627073      -1.7878121736631556      -0.7125556354543505      -34.54372301127563       34.59729479860599
-7.62                     -7.62                    66.35788495226572        0.04531832816392712      -1.766640600749735       -0.6417041563088759      -34.39767944494854       34.44899351844516
-7.62                     -7.62                    66.33700537489656        0.044600546793070905     -1.764708091640756       -0.6425016450900785      -34.36174801822867       34.41303139627323
-7.62                     -7.62                    66.3287928966262         0.04431839960489308      -1.7640030166173801      -0.6419897769688419      -34.35007778859254       34.401332846253595
-7.62                     -7.62                    66.3182800764872         0.04395736194137091      -1.763100447787096       -0.6413345329222011      -34.33513868968639       34.38635749846303
-7.62                     -7.62                    66.3123687587427         0.04375440368142236      -1.764064239000703       -0.6460083386716633      -34.331467986606626      34.38282919610238
-7.62                     -7.62                    66.19992430402513        0.03990345954891417      -1.7556642283383823      -0.6435705422824323      -34.16433276879749       34.21546687483149
-7.62                     -7.62                    66.29779720228157        0.043254299270221036     -1.7629707384450057      -0.6452351527821634      -34.30971149689134       34.361034577365636
-7.62                     -7.62                    67.58390166045662        0.08819139358638604      -1.792168695713201       -0.6665419959010777      -35.27646263222944       35.3282459614014
-7.62                     -7.62                    67.77796190883018        0.09503734531808511      -1.803621390942514       -0.675007410169869       -35.278474355477215      35.330998258975264
-7.62                     -7.62                    67.51493547692664        0.08575860986574245      -1.7964795794179338      -0.6639716853297166      -35.271470861578734      35.32343208151472
-7.62                     -7.62                    67.537422950002          0.086551774168346        -1.7920900917993947      -0.667162516647906       -35.27710488298049       35.3288949961013
-7.62                     -7.62                    67.49819895188996        0.08516828693114423      -1.7958634509712255      -0.6648640571104529      -35.27159985406445       35.323546339718085
-7.62                     -7.62                    67.84764310003453        0.09749425609713008      -1.8024650909043771      -0.6778118781103544      -35.24925051428062       35.30181257619145
-7.62                     -7.62                    68.0409038910402         0.1043019386647908       -1.7946434509612175      -0.6786411949279909      -35.18296303512261       35.23524069618846
-7.62                     -7.62                    68.04172455578455        0.10433081193063516      -1.8005586979386692      -0.6700269451402505      -35.19483217742638       35.247229107110584
-7.62                     -7.62                    68.03842877357654        0.10421485532029737      -1.7947069249658512      -0.6783708351616156      -35.184076728895036      35.23635076453422
-7.62                     -7.62                    68.0224212063312         0.10365140042824675      -1.797598532167882       -0.676012696350142       -35.20112600028892       35.25347678366909
-7.62                     -7.62                    67.87937245763781        0.09861257457043908      -1.7963156790545227      -0.6748078950300282      -35.247946834426195      35.30013982630306
-7.62                     -7.62                    68.21212597024885        0.11031965255009525      -1.7947910919829582      -0.685049439282821       -35.09681563309892       35.14935327117499
-7.62                     -7.62                    68.27118605436955        0.11239140432179219      -1.7951450907050628      -0.6897002549371791      -35.05409189730858       35.1068026325853
-7.62                     -7.62                    68.098100858337          0.10631404556413719      -1.7984953145468694      -0.6751144053467897      -35.162163358312675      35.21460062095579
-7.62                     -7.62                    68.19541586531285        0.10973310185965875      -1.7947454305752686      -0.6849333406599953      -35.106297116126996      35.158815993254166
-7.62                     -7.62                    68.04724915862727        0.10452524055734087      -1.8003564964244276      -0.6705254914417651      -35.19163079239814       35.24403163341782
-7.62                     -7.62                    68.2753963228372         0.11253898539192601      -1.7933035199011442      -0.6898308429939561      -35.05975588026416       35.11236657489997
-7.62                     -7.62                    67.49117799840396        0.08492067775387849      -1.7952566594736812      -0.6649489770938999      -35.266442520850774      35.31836734182364
-7.62                     -7.62                    67.4856209756014         0.08472470453904252      -1.795222793865685       -0.6651945403646096      -35.2652870758651        35.31721649846324
-7.62                     -7.62                    67.43883379309918        0.08307471039908551      -1.7910318143909194      -0.6631086926094554      -35.25808039448714       35.309768353849236
-7.62                     -7.62                    67.36573966063038        0.08049838355298697      -1.795628528750548       -0.6667562088593542      -35.23438350434833       35.28640852490955
-7.62                     -7.62                    67.32035411128487        0.07889955140251115      -1.7979341402664772      -0.6657449732321652      -35.22117662578313       35.27331947019917
-7.62                     -7.62                    67.20608683330066        0.07487690371690905      -1.8031632208569874      -0.6650353884789411      -35.18667380900007       35.23912149032595
-7.62                     -7.62                    67.19384302881451        0.07444629595628723      -1.792441567456585       -0.6588208047255364      -35.16694678762133       35.21875974518233
-7.62                     -7.62                    67.17115901626434        0.07364875866254272      -1.7943887524176034      -0.6583164221166271      -35.152551781035015      35.204475684560045
-7.62                     -7.62                    67.16336833493142        0.07337477414964033      -1.7887268899702349      -0.6641022699719485      -35.16550804048279       35.21723344411291
-7.62                     -7.62                    66.8886750662655         0.06374066777155048      -1.784628427205444       -0.6572227798752266      -34.98222934385532       35.03388659957198
-7.62                     -7.62                    66.96400558577011        0.0663777285855527       -1.7874648642054354      -0.6560046637970296      -35.030849852845755      35.08255712134331
-7.62                     -7.62                    67.10121657787607        0.07119050816958752      -1.789524569803035       -0.6600464522665845      -35.12237962484973       35.174132683225295
-7.62                     -7.62                    66.87330788515239        0.06320332540761338      -1.7828584809454355      -0.6538608305778837      -34.96011333572079       35.011650101006175
-7.62                     -7.62                    66.78875902145175        0.06025052303288222      -1.7817038307875919      -0.6509017340316063      -34.886115025889296      34.93764678978233
-7.62                     -7.62                    66.86405549691344        0.0628798791384285       -1.7834449535385488      -0.6513337125600174      -34.95396950459656       35.00549807724045
-7.62                     -7.62                    66.75374135965822        0.05902950983070405      -1.7795196878769843      -0.6509243097102342      -34.85207609028333       34.903547105980685
