% Model:              ElectrodesShort.mph
% Version:            COMSOL 5.5.0.292
% Date:               Mar 23 2026, 08:38
% Dimension:          3
% Nodes:              122
% Expressions:        5
% Description:        Electric potential, Electric field, x component, Electric field, y component, Electric field, z component, Electric field norm
% Length unit:        mm
% x                       y                        z                        V (V) @ SL=0.1655        es.Ex (V/m) @ SL=0.1655  es.Ey (V/m) @ SL=0.1655  es.Ez (V/m) @ SL=0.1655  es.normE (V/m) @ SL=0.1655
-7.62                     -7.62                    68.45349981949634        0.1727379475967937       -0.1140884196269738      -0.4858397841506985      -32.118994127033936      32.12287098308302
-7.62                     -7.62                    68.66152082041917        0.1793776331414449       -0.1571450473717202      -0.5626126473253832      -31.67687187563138       31.68225748557085
-7.62                     -7.62                    68.9535543642442         0.1885344157531846       -0.26126784556055327     -0.6021065490256206      -31.04613271056644       31.053069887945167
-7.62                     -7.62                    63.21872839842296        5.541414767126007E-4     1.6717530380578127       0.6337409131918013       -29.34807529977011       29.40248135049634
-7.62                     -7.62                    63.54650018050364        0.010322834726721755     1.5385990094261937       0.5596314652286223       -30.243104870477712      30.287387911396287
-7.62                     -7.62                    68.20847169828369        0.16481855111358498      -0.03524156416085589     -0.4428443563612632      -32.565418761786965      32.56844872299496
-7.62                     -7.62                    68.27529728711974        0.16698964793193483      -0.06921511485086906     -0.4765502491244966      -32.40417456058408       32.407752464878975
-7.62                     -7.62                    63.724702712880344       0.015747230567104083     1.5003880240367549       0.5270739730911969       -30.648584296964092      30.68981411810598
-7.62                     -7.62                    63.79152830171629        0.01780269687011503      1.4461344960917089       0.508664530310547        -30.851300257169548      30.88936341434074
-7.62                     -7.62                    67.96359799748936        0.15679856584172777      0.02596220443092534      -0.392811179441253       -32.949920421197675      32.95227200698022
-7.62                     -7.62                    67.97919278560076        0.15731203014322837      0.03818512364335902      -0.4036211767669897      -32.92655272476402       32.92904861204872
-7.62                     -7.62                    64.02080721439944        0.024934689409148933     1.367034339322963        0.4509754969319957       -31.379403599085972      31.412404110765713
-7.62                     -7.62                    64.03640200251061        0.02542412006891416      1.3569877828700463       0.46265679304293883      -31.405084961631303      31.43779299820978
-7.62                     -7.62                    67.44848386974918        0.13964316896955864      0.19449512004575809      -0.279103120964578       -33.62563522718392       33.62735599679948
-7.62                     -7.62                    67.45555918858292        0.13988105540649418      0.19213836584637534      -0.2803098993780395      -33.61656259708819       33.61828031942247
-7.62                     -7.62                    67.52136060474254        0.1420902709151847       0.17515735216522899      -0.2890254555252909      -33.531762806290686      33.533465861871456
-7.62                     -7.62                    67.54238715977154        0.142795030338117        0.1701308948471194       -0.2912068700649115      -33.5044985306277        33.50619596061881
-7.62                     -7.62                    67.93460208869456        0.15584262889050518      0.036284200865253524     -0.3888525406779024      -32.990679138790256      32.99299066287011
-7.62                     -7.62                    67.93721324829372        0.15592875678097473      0.035609032097283944     -0.3831985222356593      -32.982890214490794      32.98513537961855
-7.62                     -7.62                    64.45597087070233        0.03878847090005641      1.1991947559218374       0.358522511824809        -32.26986686741902       32.29413126397834
-7.62                     -7.62                    64.47698174020219        0.03946691922908831      1.1858699032306035       0.35756181190913594      -32.30718827616798       32.3309225384691
-7.62                     -7.62                    64.5307092739019         0.041205705416923706     1.1704647724826032       0.349870054400661        -32.41904114008492       32.44205026321714
-7.62                     -7.62                    64.55060545460226        0.04185115296666048      1.1634604685777106       0.3457199837477276       -32.462964130388904      32.485646102548465
-7.62                     -7.62                    64.08132209522053        0.02683691424429691      1.3345979521291866       0.4446069050500938       -31.497826408649477      31.529222880738146
-7.62                     -7.62                    64.11611410754351        0.02793405904156329      1.3264948694174805       0.4449320425704997       -31.576146112179163      31.60712825390475
-7.62                     -7.62                    66.93867210676228        0.12238645453191954      0.3551169633282427       -0.17185806533444747     -34.03635225151993       34.03863860147479
-7.62                     -7.62                    66.96787141498548        0.12338000794240052      0.3467349073247874       -0.17910093988473363     -34.019911602137654      34.0221499564605
-7.62                     -7.62                    66.9354054730889         0.12227526897198367      0.3568190350856639       -0.17038106565601652     -34.036738779687425      34.03903547822722
-7.62                     -7.62                    66.92717117208963        0.12199497409601207      0.3599489826302147       -0.16861386779078202     -34.04326797131898       34.04558837901823
-7.62                     -7.62                    67.31264679468107        0.13506682573972334      0.23506235421154997      -0.2536232996658727      -33.75767805878476       33.759449151445864
-7.62                     -7.62                    67.33371975256395        0.13577797212987286      0.22853803934185635      -0.2589722185287986      -33.73612548175049       33.73789351405643
-7.62                     -7.62                    67.40029038897195        0.13802157278315222      0.2081348868049986       -0.2724729617263222      -33.67004976075481       33.67179550510608
-7.62                     -7.62                    64.96544603712199        0.055460122534115364     1.012052878283086        0.2582313551543223       -33.12779453795264       33.1442559942146
-7.62                     -7.62                    65.07547056711762        0.059114191164474576     0.9760504624220658       0.231514455410192        -33.29345135307335       33.30856010769183
-7.62                     -7.62                    64.9421564347844         0.0546889432734326       1.0198834577320284       0.2567257540307537       -33.09622091168487       33.112926615072624
-7.62                     -7.62                    64.61502472989687        0.043945509716873755     1.1400427239393025       0.3378918474536847       -32.56585455287703       32.58755515641092
-7.62                     -7.62                    64.75947544322315        0.04866800861839251      1.0878919991659188       0.301451590602829        -32.819727271249064      32.83913641103395
-7.62                     -7.62                    64.6143251659418         0.04392273159216568      1.1488494597187469       0.3380090510933087       -32.559496012637986      32.581511410563905
-7.62                     -7.62                    66.80458982714741        0.11781829144772622      0.398250742563107        -0.14392166885568258     -34.10080581515865       34.10343493467889
-7.62                     -7.62                    66.77483421476413        0.11680343447459143      0.4094026819550436       -0.13733028424903182     -34.11119716527037       34.11393032488213
-7.62                     -7.62                    66.79036050025631        0.11733300968245398      0.4038826440468597       -0.1401116476615556      -34.10541559398382       34.108094718150525
-7.62                     -7.62                    66.76619120194016        0.11650859693017035      0.4130033291393147       -0.1358919962939069      -34.11418020233435       34.11695076148919
-7.62                     -7.62                    66.79966322519769        0.11765028427425905      0.39993404056173176      -0.14304068077922238     -34.10326889064379       34.105913811254354
-7.62                     -7.62                    65.21068311488598        0.06362672501398473      0.9287752108649556       0.2026180439155496       -33.456896861651245      33.47039923686609
-7.62                     -7.62                    65.22999233028067        0.06427298994569129      0.9225453091067948       0.19849203102690183      -33.48164920427661       33.49494472860005
-7.62                     -7.62                    65.16479231117663        0.06209269879709998      0.9444017099866358       0.21202354535427048      -33.39934198545626       33.41336399758443
-7.62                     -7.62                    68.99507191180703        0.18982123174330887      -0.27595977109081105     -0.5949654276388117      -30.963743236887275      30.970688285784487
-7.62                     -7.62                    69.27674740639688        0.1984455476998207       -0.37393329386109997     -0.6771470209387616      -30.272083962563613      30.28196528682914
-7.62                     -7.62                    69.40885261602193        0.20242197273203444      -0.42112816213369797     -0.7101571067375687      -29.931612304790775      29.942997298358332
-7.62                     -7.62                    69.43975710591931        0.203345773355009        -0.4317759283931082      -0.7187088658675265      -29.85262138047463       29.8643931157522
-7.62                     -7.62                    69.68889670989918        0.21070694749049018      -0.5028404531809656      -0.8046629803303347      -29.24293154195675       29.258321486388077
-7.62                     -7.62                    69.72577282426876        0.21178250032729273      -0.491944057128471       -0.79012963174182        -29.119879692485927      29.134750850061423
-7.62                     -7.62                    69.83848402708512        0.21504852354999468      -0.5283734916456382      -0.8267993295996234      -28.83395526078615       28.85064560211985
-7.62                     -7.62                    70.77959275736588        0.24089082122452163      -0.8446674218655659      -0.9781499045510316      -26.03583652455947       26.06789258499657
-7.62                     -7.62                    70.7796398000739         0.24089204601751352      -0.8346629295388084      -0.952953174007547       -26.085055828216433      26.115798274587846
-7.62                     -7.62                    70.63956965553831        0.23720952084224528      -0.7837255124553621      -1.0053425020773261      -26.49104010807696       26.521691975307657
-7.62                     -7.62                    70.48444356446961        0.23306563315837378      -0.7621475775692375      -0.9995053046410192      -26.935016789557096      26.964328458868078
-7.62                     -7.62                    71.08723559948622        0.24877553773391023      -0.9173790568843856      -1.0518202523518312      -25.17371774059337       25.21237741785437
-7.62                     -7.62                    71.15436208952458        0.25045879366874185      -0.9421777516507461      -1.0740541836780082      -24.9761321457934        25.01696361010497
-7.62                     -7.62                    72.00000000000001        0.27051691661535987      -1.1818390668019205      -1.2628619572966215      -22.462902216659216      22.52939279914574
-7.62                     -7.62                    63.20818751752576        2.4493536541023836E-4    1.6754855100677268       0.6359646296823032       -29.319907825702415      29.37462676549848
-7.62                     -7.62                    62.93770521515989        -0.007587830370830788    1.7712619098396          0.6930258906932394       -28.597121626715783      28.660303888332997
-7.62                     -7.62                    62.77732275612127        -0.01212735712096499     1.8141576643582216       0.7314112776696859       -28.06823517458214       28.136310282336275
-7.62                     -7.62                    62.77318302319469        -0.012243526885007842    1.8151845190461815       0.7322405075729908       -28.0560443879506        28.12423683760628
-7.62                     -7.62                    62.52590489990641        -0.019096908214711793    1.929374702634305        0.7946167483386084       -27.336381533644868      27.41590155134253
-7.62                     -7.62                    62.30850932338679        -0.024968601034916375    2.019331182483768        0.8144029142605618       -26.68213084095821       26.770824730391116
-7.62                     -7.62                    62.35960114721641        -0.023601434353393277    1.9981898110981149       0.8097528136479433       -26.83589138046088       26.922361120902483
-7.62                     -7.62                    62.128814981972354       -0.029712515698491617    2.0894497569001254       0.8348823344236935       -26.113878010948742      26.210636267928617
-7.62                     -7.62                    62.01466702761923        -0.032672915161968026    2.1377358446478603       0.8442617155656955       -25.76416221871949       25.86647921960689
-7.62                     -7.62                    61.373585565977585       -0.04853034651288024     2.348721153731912        0.9459764083418989       -23.68674576744357       23.821697829387247
-7.62                     -7.62                    61.035628780558866       -0.05634760306518771     2.518214316925194        0.9945403344572064       -22.559228586124437      22.72112031181216
-7.62                     -7.62                    61.33877016596034        -0.04935289416117265     2.366133533214896        0.9562206895240024       -23.5646839660945        23.70247405495867
-7.62                     -7.62                    61.35511004254613        -0.04896741803522463     2.3578412232224224       0.9546402127327696       -23.61757275710221       23.754167973362275
-7.62                     -7.62                    61                       -0.05714941512976557     2.5279861561873584       0.9979403288651258       -22.450005634119474      22.613919427596944
-7.62                     -7.62                    67.68382479621995        0.14752364237811624      0.12185316142284108      -0.3319429071391866      -33.357463411300216      33.35933751624545
-7.62                     -7.62                    67.92921748946718        0.15566496638676472      0.038218954450613296     -0.3876571512559508      -32.99844883085893       33.00074793089112
-7.62                     -7.62                    67.88714569351195        0.154275385346509        0.05933981257589949      -0.3758852723633197      -33.057185140010986      33.059375377225436
-7.62                     -7.62                    64.3090571375772         0.034067474954835565     1.2501350347891176       0.39713084800435894      -32.00133489038436       32.02820608904244
-7.62                     -7.62                    67.09559359352609        0.12771985534996097      0.3068876359607202       -0.20586423498662043     -33.933952200242516      33.935964286177224
-7.62                     -7.62                    67.13420125020325        0.12902941321552996      0.29616100270953893      -0.21402168682934786     -33.908530209894295      33.91049892905254
-7.62                     -7.62                    67.29314736675019        0.13440850043524724      0.24505823712581787      -0.2478823897687903      -33.7702839751243        33.77208283448443
-7.62                     -7.62                    67.11786116271523        0.12847530460209852      0.30035036191232223      -0.2096097594588855      -33.91697985828053       33.918957373394726
-7.62                     -7.62                    67.11725403803578        0.12845471263155145      0.30056440918431804      -0.20948613875219735     -33.917424652586405      33.919403274088914
-7.62                     -7.62                    67.29541164856306        0.1344849635030502       0.24429649613719562      -0.24827148275727495     -33.76818881418228       33.76998512432958
-7.62                     -7.62                    64.91151382667098        0.0536753712783042       1.0341032994470396       0.26621551936898413      -33.05166548691713       33.06891035089831
-7.62                     -7.62                    64.88679461117006        0.05285882261585743      1.0436301492198368       0.2719400966355465       -33.01568717091624       33.03329706027422
-7.62                     -7.62                    64.78872345515394        0.049628463357327006     1.08011028755611         0.2914799977797742       -32.86138649914297       32.880424593798146
-7.62                     -7.62                    64.88094939789666        0.05266586602108992      1.0453923929417783       0.272670699978363        -33.00733922885266       33.02501532981329
-7.62                     -7.62                    64.76156510428515        0.0487365859204705       1.0908451298960307       0.29661946131284367      -32.81917016022567       32.83863359228113
-7.62                     -7.62                    66.46416257301064        0.10619154637655433      0.5073608387234572       -0.07012404070245282     -34.1839253428101        34.187762200011996
-7.62                     -7.62                    66.48665930802375        0.10696054554860249      0.4993598189323478       -0.07626666063109155     -34.18147715672001       34.18520963000899
-7.62                     -7.62                    66.51050905656905        0.10777573423356233      0.4927529295368984       -0.08030843071891525     -34.184643266409         34.18828878644343
-7.62                     -7.62                    65.87757426262266        0.086161693212088        0.7031443064148561       0.059682836842625875     -34.04434673584744       34.051659557608396
-7.62                     -7.62                    65.92343654535638        0.08772365489273541      0.6857987241259025       0.047865625481300356     -34.068353500398416      34.07528901177838
-7.62                     -7.62                    66.05384310283254        0.09217035961531532      0.6395104545767936       0.023015666531136958     -34.129420826758775      34.13541957135454
-7.62                     -7.62                    66.57533381482196        0.10999133266662593      0.47118873535069383      -0.09441093272045009     -34.17190731013331       34.17528612112678
-7.62                     -7.62                    66.60677400369029        0.11106560678382707      0.46073004092198744      -0.10125068559239025     -34.1657303357566        34.168986716722806
-7.62                     -7.62                    66.73015298592766        0.11527888978883634      0.42081975848107334      -0.12763144315519526     -34.12861052264486       34.131443498053166
-7.62                     -7.62                    66.74508292019307        0.11578838820848994      0.41903682267187037      -0.13013010104972977     -34.12380880636505       34.12662967764779
-7.62                     -7.62                    66.64327134174168        0.11231240262889897      0.45029222621572274      -0.10868019807153928     -34.15939640290085       34.16253704110628
-7.62                     -7.62                    66.75987803230464        0.11629321656316825      0.41424246596920966      -0.13369896703375161     -34.11809580563033       34.120872404388614
-7.62                     -7.62                    66.76239048828617        0.11637893569075336      0.4140414704451132       -0.13520711284036224     -34.11576355073572       34.11854384278906
-7.62                     -7.62                    66.17360100397593        0.096259872435892        0.6056120225473478       -0.009111419371492957    -34.15937430611328       34.16474355128352
-7.62                     -7.62                    66.19809722203593        0.0970967243979129       0.5972904013787002       -0.013017977850580564    -34.16561855371168       34.17084161165853
-7.62                     -7.62                    66.12216519352057        0.09450319452968547      0.6209825619402949       -5.604110690171638E-4    -34.14479626545682       34.150442627671
-7.62                     -7.62                    66.2281133267338         0.09812244723756568      0.5846823965874393       -0.019611251489095594    -34.1730538852739        34.178060944879505
-7.62                     -7.62                    66.32502056975314        0.101434450605706        0.5555669310147273       -0.040677205174297626    -34.187993767354         34.19253174432239
-7.62                     -7.62                    66.36514480658442        0.10280622689756905      0.5416579934926151       -0.049614183464385064    -34.18844901115773       34.1927755635258
-7.62                     -7.62                    65.85197723082692        0.0852904170600923       0.7136644879730056       0.06168747296487709      -34.032900166066696      34.04043795339856
-7.62                     -7.62                    65.78584032382741        0.08304059313410019      0.7339812708786297       0.07717299844570391      -33.99288679192412       34.00089758559705
-7.62                     -7.62                    65.77862899270244        0.08279547371090212      0.7355513041073607       0.07708926620895795      -33.99415397165052       34.00219820429587
-7.62                     -7.62                    66.118765192604          0.09438710393908116      0.6160374674349782       0.010756457184299961     -34.15994975787186       34.165505781752806
-7.62                     -7.62                    65.60719624551463        0.07697897268535574      0.7946136610570136       0.11181748648093048      -33.86337174570079       33.87287794103341
-7.62                     -7.62                    65.70392326965361        0.08025804464837995      0.761289070976698        0.09222287894150938      -33.937162638829         33.945825576693814
-7.62                     -7.62                    65.54591735341157        0.07490565865402116      0.8141700708175676       0.11910531666319457      -33.80870186168758       33.81871346685367
-7.62                     -7.62                    65.5197175652794         0.07402005021404623      0.822709417562038        0.13417937952254988      -33.791173744911475      33.80145378457011
-7.62                     -7.62                    65.5034804243222         0.07347151628637778      0.8282204009152423       0.1344069107458381       -33.776862666817436      33.78728260548921
-7.62                     -7.62                    65.51638254948467        0.07390736194287606      0.8240230786042488       0.13506827892888396      -33.78767931399952       33.797995959815665
-7.62                     -7.62                    65.37617825491446        0.06918006698455212      0.8747055830524104       0.16367252318101322      -33.6448891819216        33.65665560651641
-7.62                     -7.62                    65.2796778643487         0.06593809250951131      0.905533839685404        0.1849203719945578       -33.53979076421032       33.55252228351547
-7.62                     -7.62                    65.34202226260857        0.06803149004484133      0.8860170922277195       0.17205450560125612      -33.609894659473674      33.62201136252164
-7.62                     -7.62                    65.2653632727449         0.06545809953377082      0.9093273924431173       0.18738137734447946      -33.528196623713725      33.541048834609086
