% Model:              ElectrodesShort.mph
% Version:            COMSOL 5.5.0.292
% Date:               Mar 23 2026, 08:38
% Dimension:          3
% Nodes:              120
% Expressions:        5
% Description:        Electric potential, Electric field, x component, Electric field, y component, Electric field, z component, Electric field norm
% Length unit:        mm
% x                       y                        z                        V (V) @ SL=0.16575       es.Ex (V/m) @ SL=0.16575 es.Ey (V/m) @ SL=0.16575 es.Ez (V/m) @ SL=0.16575 es.normE (V/m) @ SL=0.16575
-7.62                     -7.62                    69.18806431150857        0.18391387418616303      -0.2557090309041268      -1.0290024588780087      -31.962770358542876      31.98035212692021
-7.62                     -7.62                    69.19362763008886        0.18409165659988547      -0.2386716140404701      -1.0231179691532475      -31.95853195031401       31.975795516881114
-7.62                     -7.62                    69.18046265944497        0.18367083706953688      -0.2547551800107897      -1.0174024499795635      -31.975459012390843      31.99265520396914
-7.62                     -7.62                    68.70349981949636        0.1681313824051877       -0.12009297075348968     -0.9192338066001753      -33.15819364566286       33.17115040145726
-7.62                     -7.62                    63.3517419345902         -0.015214882070612225    0.47435783011855176      0.2509259866271897       -30.530286218771458      30.53500214183497
-7.62                     -7.62                    63.79650018050364        -0.0013532531367314315   0.4438818072114872       0.129747702282192        -31.80179968337637       31.805161980826608
-7.62                     -7.62                    68.45847169828373        0.15995079601588713      -0.07663665543257459     -0.8747393040466243      -33.6581177918362        33.669569871266845
-7.62                     -7.62                    68.52529728711964        0.1621946858582563       -0.11571373907395355     -0.8947638891545466      -33.48046128161276       33.49261530123195
-7.62                     -7.62                    63.974702712880344       0.004349754912678293     0.4566655991541209       0.0854487539707299       -32.216997177934786      32.22034686532818
-7.62                     -7.62                    64.0415283017163         0.006510453059179392     0.42124720906543445      0.062263537518131074     -32.42491898893481       32.42771495801447
-7.62                     -7.62                    68.21359799748939        0.15165614467546965      -0.038368866785646105    -0.835436052400155       -34.10081065234502       34.11106437381683
-7.62                     -7.62                    68.22919278560066        0.15218762572477576      -0.04818997166540839     -0.8259231953145729      -34.07438464838138       34.084426950790544
-7.62                     -7.62                    64.27080721439901        0.014004869069111787     0.4085057555730014       -0.011424166910400047    -32.96756259024879       32.970095398798854
-7.62                     -7.62                    64.28640200251067        0.014519104792998828     0.4013144213719535       -2.820394556515282E-4    -32.993644757807004      32.99608533975982
-7.62                     -7.62                    67.69848474551199        0.13387704586719584      0.04096065924193226      -0.7300725305501601      -34.89629095469877       34.90395115270563
-7.62                     -7.62                    67.70828090117779        0.13421882932751925      0.03950336580683711      -0.7313514328732822      -34.881288366277374      34.888976963013306
-7.62                     -7.62                    67.78996801322761        0.137063114277273        0.03307421438285019      -0.7395653708953205      -34.75817970456344       34.76606257855799
-7.62                     -7.62                    67.81174876680346        0.13781979814642645      0.03276950690323588      -0.7414384175963278      -34.725226140908774      34.733156137974625
-7.62                     -7.62                    68.16181864799074        0.14988835499344685      -0.028149079783929665    -0.8214890288857077      -34.18376213573495       34.19364312774786
-7.62                     -7.62                    64.78070587171692        0.031090373877346495     0.3513793316136553       -0.13194349877956313     -34.02349417144971       34.02556439144291
-7.62                     -7.62                    64.80060512491032        0.03176783797279615      0.3504755952031644       -0.1363299884472724      -34.06483639236251       34.066912062102254
-7.62                     -7.62                    64.726979951885          0.02926546776691512      0.35123871106566895      -0.12167513495185744     -33.91057186286017       33.91260912310966
-7.62                     -7.62                    64.7059663599933         0.02855324552970853      0.3586661697899629       -0.12004721631159576     -33.87266564460288       33.87477720408736
-7.62                     -7.62                    64.33132209522186        0.016003301067907302     0.3911142085069983       -0.020276395255351076    -33.088343084920226      33.09066076042738
-7.62                     -7.62                    64.3661141075451         0.01715580979835197      0.39243640181992134      -0.02158839009791258     -33.16814927490961       33.17047781854743
-7.62                     -7.62                    67.17716912860664        0.11553908780296024      0.11155080830590691      -0.6326393670414063      -35.41434320700148       35.42016912628815
-7.62                     -7.62                    67.1881215465497         0.11592692356848032      0.11073137593490401      -0.6333513838035856      -35.40643389265779       35.41227126870188
-7.62                     -7.62                    67.19090863546305        0.11602560512333061      0.10907818170159089      -0.635588929350206       -35.40637449981125       35.41224684424472
-7.62                     -7.62                    67.22721224550311        0.11731041373503555      0.10527608860235205      -0.6431243688462871      -35.37757924144287       35.383581008614776
-7.62                     -7.62                    67.56202448912431        0.12910440580590224      0.056482733351344905     -0.707654119101707       -35.0566874487655        35.063874565311245
-7.62                     -7.62                    67.5836332992442         0.12986164887685914      0.05368813997881716      -0.7127193629637709      -35.029902246448074      35.03719313390309
-7.62                     -7.62                    67.65009078577769        0.1321869780750368       0.04609922824514001      -0.7248369978956362      -34.95044132520616       34.95798710794203
-7.62                     -7.62                    65.20278992421387        0.045602540773868175     0.31186435895941145      -0.23088743861504213     -34.71135020294997       34.71351899908067
-7.62                     -7.62                    65.32546190343723        0.049871438427060474     0.3028926365155513       -0.26241889144489505     -34.88598852342193       34.88829034045906
-7.62                     -7.62                    65.1923644657343         0.04524073000930895      0.31287374310640814      -0.2315656044818013      -34.69857871955081       34.70076191908715
-7.62                     -7.62                    64.85897540493829        0.03375881689904072      0.35127163955375007      -0.14893930791177468     -34.15813361688882       34.1602644438158
-7.62                     -7.62                    64.86963005913607        0.034122855755186025     0.35124721543767445      -0.15164162441988083     -34.17612111590594       34.178262453168706
-7.62                     -7.62                    67.07375852817557        0.11187314063114885      0.12225184555194346      -0.6118684997468335      -35.484298932390516      35.48978443577777
-7.62                     -7.62                    67.11132380612891        0.11320569267300769      0.11640852338177865      -0.6185149146915592      -35.46187541610351       35.467460011555076
-7.62                     -7.62                    67.1482625934808         0.11451507674317028      0.11543009976006147      -0.6285151339274933      -35.43513842415214       35.44089996769735
-7.62                     -7.62                    65.36994222779136        0.0514242780000841       0.2993078623938459       -0.2729373209083049      -34.93636060418686       34.93870879473675
-7.62                     -7.62                    65.44633935348972        0.05409677205201394      0.29174597243917333      -0.2897190095386426      -35.027764158075456      35.03017720096029
-7.62                     -7.62                    65.48781748680197        0.055550730884588936     0.28499556335901843      -0.2995098804477063      -35.07842490726654       35.080861201150086
-7.62                     -7.62                    69.36310724511512        0.1894735472912485       -0.25166043874977184     -1.0615750328623008      -31.552241195222912      31.57109752555888
-7.62                     -7.62                    69.66580321966777        0.19889706671174784      -0.31109665384057195     -1.139877789507512       -30.703327066736193      30.726054017234603
-7.62                     -7.62                    69.72215650562723        0.20062314300590528      -0.3231320987893298      -1.1392525871992234      -30.550789046843278      30.573730917168536
-7.62                     -7.62                    69.99786996859996        0.20894014998595645      -0.4958634596630418      -1.2333994898547047      -29.71455375842457       29.744274405917295
-7.62                     -7.62                    70.06577640890808        0.21095153915985163      -0.5014904849772535      -1.2410511701727955      -29.525458374993512      29.555784424829337
-7.62                     -7.62                    71.49372571221552        0.2499164878558162       -0.7260385714641373      -1.5487465966387504      -24.989799230403122      25.04826967284787
-7.62                     -7.62                    71.60650741318814        0.2527105743190059       -0.8185313906160943      -1.4978918673062367      -24.727087458081378      24.785934072436557
-7.62                     -7.62                    70.95773159620134        0.2360617444343591       -0.6501975330559873      -1.300352170764711       -26.69420477586475       26.73376593777624
-7.62                     -7.62                    70.12042878621006        0.21256730244241756      -0.5107675823883682      -1.2341781471947684      -29.474609276846437      29.504858434586566
-7.62                     -7.62                    70.181841950736          0.21436824266805724      -0.4569331440451663      -1.230287338638533       -29.224834466607923      29.254287624797424
-7.62                     -7.62                    71.96692007816075        0.2614148234452594       -0.8739889815248834      -1.7524949837071304      -23.574484446529762      23.655684566873546
-7.62                     -7.62                    72.00000000000001        0.26219057278604246      -0.7984451988941075      -1.7193754075314516      -23.395695597842828      23.47237395396093
-7.62                     -7.62                    63.285671841514166       -0.01722650905419029     0.4927459512608603       0.27546307689364613      -30.35644960500748       30.36169809316624
-7.62                     -7.62                    63.13538118320861        -0.02175335901726192     0.5353887523456748       0.3270041473152858       -29.876838155251434      29.883424017063163
-7.62                     -7.62                    62.80123001007491        -0.03156248548926499     0.5609288078726369       0.428711195818849        -28.833872808366472      28.842514722991428
-7.62                     -7.62                    62.72388783253982        -0.033783898260351865    0.5738972709395824       0.4763547622803159       -28.603908058443523      28.61363011141769
-7.62                     -7.62                    62.6958843368938         -0.03458371151807137     0.5765398559832775       0.4877572503072827       -28.518478934212148      28.528476055721352
-7.62                     -7.62                    62.66351682021287        -0.03550314578994518     0.5949923884500574       0.4728676704554289       -28.35353330364793       28.36371750277364
-7.62                     -7.62                    62.5803804589054         -0.037854704902999366    0.5655888740390509       0.49113604548761813      -28.14276231339602       28.152729459466578
-7.62                     -7.62                    61.95660833073847        -0.05474102679918342     0.6776857494482798       0.7339059586130734       -25.999836028750387      26.019018994823764
-7.62                     -7.62                    61.20572462901562        -0.0732982244300176      0.8196172243111874       0.941067654159589        -23.564224866656843      23.597247176110645
-7.62                     -7.62                    61.459941575125136       -0.06723378029604021     0.7743666158898534       0.946796821019646        -24.28913006024279       24.31990762645877
-7.62                     -7.62                    61.14383549960925        -0.07474983978533845     0.9671910059084041       0.9163128539748158       -23.154277884664666      23.192577951761653
-7.62                     -7.62                    61                       -0.07804599335369092     0.9968052917748622       0.9659313537741312       -22.677989911630924      22.72042848631927
-7.62                     -7.62                    67.91060110656753        0.1412467743417066       0.010377047096781666     -0.7688802486817217      -34.599927518093736      34.6084710551804
-7.62                     -7.62                    67.93799713742759        0.14219416350958536      0.006965853644942399     -0.7742318857767643      -34.569160355961586      34.577830054129436
-7.62                     -7.62                    67.85209491326187        0.13922013144806264      0.019160354090018927     -0.7574458237120965      -34.67967449109591       34.68795056072636
-7.62                     -7.62                    64.55905673790996        0.023597198470602015     0.3699541671813691       -0.07798138436618984     -33.60183991897174       33.60396692538435
-7.62                     -7.62                    67.34836640336412        0.12159051051607764      0.09100981888855131      -0.6657092240416773      -35.27334305218528       35.279741802275936
-7.62                     -7.62                    67.35661807707542        0.1218815436617373       0.08964920002745203      -0.667164764188314       -35.265836232400375      35.27226036097096
-7.62                     -7.62                    67.37849314975334        0.12265276873019745      0.08833665041734662      -0.6703284036896857      -35.25112485376084       35.2576083560419
-7.62                     -7.62                    67.53461639223443        0.12814327757691127      0.06393741203692116      -0.6966322573614434      -35.08601981081256       35.09299318467129
-7.62                     -7.62                    67.55097913533172        0.1287172445694416       0.06655965942763942      -0.7014658852424276      -35.05859587851745       35.06567594599629
-7.62                     -7.62                    67.5407958929985         0.12836007218975143      0.06296822270962821      -0.6974608324460405      -35.079717233988504      35.08670656853472
-7.62                     -7.62                    65.13792426250555        0.04335383005911651      0.3194138443748926       -0.21883182897707343     -34.61840071125499       34.620565858725826
-7.62                     -7.62                    65.17113261266928        0.044504337058979514     0.3148116326179178       -0.22712616540962927     -34.66823048682315       34.670403772476305
-7.62                     -7.62                    65.12894717642067        0.0430431208616614       0.320206126524603        -0.2170263822030165      -34.605115418349115      34.60727734929894
-7.62                     -7.62                    65.02758410165745        0.0395433729688838       0.3304341647238971       -0.19315508806372605     -34.44894444032069       34.45107064631756
-7.62                     -7.62                    65.00751419431569        0.03885229400603544      0.3320293183304237       -0.18765640462095945     -34.42052859713985       34.42264149220609
-7.62                     -7.62                    64.88565672162609        0.034670865849196375     0.34375078602807774      -0.15599299834035918     -34.20764929869412       34.20973207964182
-7.62                     -7.62                    66.52673179938235        0.09239890891068356      0.19026975613940067      -0.5065386905056766      -35.659310096032755      35.66341515545173
-7.62                     -7.62                    66.5724333323451         0.09402867341389673      0.18238562830265437      -0.5163482344974         -35.658276992743936      35.66248165941248
-7.62                     -7.62                    66.57768135346899        0.09421580669729795      0.1813691284402097       -0.5183553449232221      -35.6581463237752        35.66237493875197
-7.62                     -7.62                    66.64594134223867        0.09664944967405038      0.16980427685629707      -0.5334099776691943      -35.646962880501604      35.651357930667594
-7.62                     -7.62                    66.65401435402693        0.0969372226867159       0.17140508092839468      -0.5339904962545887      -35.64746086186477       35.65187220119076
-7.62                     -7.62                    66.86754750321188        0.10454429583050578      0.15031083380483778      -0.5767168766436725      -35.58716776940739       35.59215792208324
-7.62                     -7.62                    66.88895058952025        0.10530588976949745      0.14676242397223405      -0.5816478123838067      -35.5792305046764        35.584287216293056
-7.62                     -7.62                    66.86370624835037        0.10440759383112208      0.15094742957285234      -0.5759075820419923      -35.58853096038081       35.59351051227641
-7.62                     -7.62                    66.74237095433395        0.100086475962634        0.1625436848217987       -0.5512592151083595      -35.63687597175927       35.64151001568635
-7.62                     -7.62                    66.92615146405072        0.10662923544783878      0.14027677423484874      -0.5876241396661044      -35.56564755047822       35.57077825108337
-7.62                     -7.62                    66.94763732848303        0.10739327139384491      0.13886668144330372      -0.5904038056522865      -35.55640236485275       35.56157490522952
-7.62                     -7.62                    66.26445104123216        0.08304850460057722      0.2114644382909887       -0.4567361180817784      -35.6245565790571        35.62811188576603
-7.62                     -7.62                    66.32775570447157        0.08530444540333945      0.20448497618536976      -0.4732980010181791      -35.640799357336974      35.64452838702183
-7.62                     -7.62                    66.20907299017276        0.08107608211935409      0.2182190981176113       -0.4479138467734103      -35.61039277565692       35.613878194117994
-7.62                     -7.62                    66.16536323157322        0.0795198023745791       0.22388788981704977      -0.43471631319334847     -35.591891515128964      35.59525032479576
-7.62                     -7.62                    66.37041339578285        0.08682493892690715      0.20343223151354195      -0.47669172794417136     -35.65374196994352       35.65750883244118
-7.62                     -7.62                    66.50261310837617        0.09153877227197557      0.19050147692485098      -0.5121640708435962      -35.660079408310935      35.664265957050276
-7.62                     -7.62                    66.5218422691184         0.09222453789825408      0.18803685613852394      -0.5086147142578739      -35.66203257218382       35.66615502078022
-7.62                     -7.62                    66.52209856916241        0.09223367807993942      0.18799982309508323      -0.508655929304819       -35.66204168231633       35.66616452240369
-7.62                     -7.62                    66.0657575454559         0.07597666686499437      0.23414392103753556      -0.41773339661801856     -35.552578913783094      35.55580391423013
-7.62                     -7.62                    66.0672041823471         0.07602809739108542      0.23563663489116493      -0.41725448352323724     -35.55217579961936       35.55540507454195
-7.62                     -7.62                    66.01636691263013        0.07422143017195255      0.23930179269266638      -0.4086599519039211      -35.523112674690424      35.52626918778592
-7.62                     -7.62                    65.94537496485269        0.07170107859045771      0.2464998594334702       -0.39516095532465556     -35.48129184850063       35.484348459564416
-7.62                     -7.62                    65.86604315243879        0.0688885056185281       0.2529164559387027       -0.37717515077122243     -35.42729549992947       35.43020595857956
-7.62                     -7.62                    65.9115171106388         0.07050011575992726      0.24968523071817117      -0.3852206494684154      -35.455737503523295      35.45870922047169
-7.62                     -7.62                    65.83165897402964        0.06767081710025151      0.25610391740463         -0.3712580420369136      -35.4011246988448        35.403997679548084
-7.62                     -7.62                    65.65190076479936        0.0613205072601912       0.2717093897367917       -0.335487282262493       -35.2486479130309        35.251291570747426
-7.62                     -7.62                    65.57469333952254        0.05860216990734653      0.2855981634817857       -0.3164936166103871      -35.16872966012065       35.17131331677833
-7.62                     -7.62                    65.60827649554142        0.05978381529692316      0.27667168631614913      -0.32434115980277056     -35.20220276205106       35.204784102597564
-7.62                     -7.62                    67.00221215885618        0.10933290464316239      0.1316771538092496       -0.5996919510399437      -35.52520195916737       35.53050722335112
-7.62                     -7.62                    65.5704306856336         0.05845228745101875      0.280076146301937        -0.3159981136402621      -35.16643594770005       35.168970907879036
-7.62                     -7.62                    65.62528969594868        0.06038286558723149      0.2753236930787324       -0.32730948710866414     -35.219619819028765      35.222216779090516
-7.62                     -7.62                    65.63311151828933        0.06065837851296453      0.27470395291415173      -0.32867417619013395     -35.22762731450939       35.23023155169164
-7.62                     -7.62                    65.6356115120819         0.060746447932762494     0.2738740702467908       -0.328770744212477       -35.22908095960702       35.23167952946821
-7.62                     -7.62                    65.48855845519888        0.05557672321781834      0.2849271224562244       -0.299663968426767       -35.07931282551655       35.08174981766922
-7.62                     -7.62                    65.49463743091553        0.05578998650853991      0.28457880688876         -0.3006813799745771      -35.085360555096095      35.08780300433025
-7.62                     -7.62                    65.54987579034302        0.05772967139991807      0.28207033763923306      -0.31167539384620113     -35.14441126270137       35.14692516036639
