% Model:              ElectrodesShort.mph
% Version:            COMSOL 5.5.0.292
% Date:               Mar 23 2026, 08:39
% Dimension:          3
% Nodes:              126
% Expressions:        5
% Description:        Electric potential, Electric field, x component, Electric field, y component, Electric field, z component, Electric field norm
% Length unit:        mm
% x                       y                        z                        V (V) @ SL=0.16675       es.Ex (V/m) @ SL=0.16675 es.Ey (V/m) @ SL=0.16675 es.Ez (V/m) @ SL=0.16675 es.normE (V/m) @ SL=0.16675
-7.62                     -7.62                    69.70349981949636        0.16401004773757394      -1.5347834652711185      -0.29629311752108833     -32.82544565326581       32.862641893680234
-7.62                     -7.62                    69.9012861725734         0.17045868739105915      -1.5292167501182377      -0.35270707435550896     -32.35730547426786       32.39534108022676
-7.62                     -7.62                    69.95177299506157        0.1720891013667984       -1.5302895169224389      -0.3582652965857043      -32.2304047858369        32.2687020607777
-7.62                     -7.62                    70.10186233342466        0.17689764132679583      -1.5086306855515232      -0.3954658371603088      -31.896094641950462      31.934201308033515
-7.62                     -7.62                    64.52268667285014        -0.012020231450564123    -1.3161372024274955      0.8340475133449732       -30.716177857580046      30.755673209484804
-7.62                     -7.62                    64.79650018050364        -0.0035040153252660433   -1.357281319337047       0.7839509052377163       -31.48448320715553       31.523474973792197
-7.62                     -7.62                    64.44633264635368        -0.0143577760365892      -1.3030793259176292      0.8466942722038233       -30.527099851602532      30.566627754299756
-7.62                     -7.62                    69.45847169828369        0.1559126268494117       -1.5355435057863982      -0.23612208791082345     -33.306586927331225      33.34280102580516
-7.62                     -7.62                    69.52529728711971        0.15813352285941587      -1.5436954245607142      -0.2639072338421329      -33.150508102648224      33.187480019664484
-7.62                     -7.62                    64.97470271288034        0.0021405821559949056    -1.3592420492243562      0.7605810957223512       -31.8780782670032        31.91610716470183
-7.62                     -7.62                    65.04152830171628        0.004278283276842822     -1.3952316387536712      0.7462635040531929       -32.07416166981723       32.113165950507494
-7.62                     -7.62                    69.21359799748942        0.1477056825703126       -1.5503563627189578      -0.1708782466073444      -33.73320806589109       33.769248298463594
-7.62                     -7.62                    69.22919278560065        0.14823146059173298      -1.543497565889453       -0.18896491497444856     -33.696636998861436      33.73249823994712
-7.62                     -7.62                    65.27080721439903        0.011689853114535066     -1.4224616909439485      0.6955949344929957       -32.59488405505474       32.63332217439036
-7.62                     -7.62                    65.28640200251066        0.012198336904507714     -1.430163394354878       0.7042732048616109       -32.61959538138098       32.658526772140995
-7.62                     -7.62                    68.77136060474282        0.13263237827370306      -1.5383551439669532      -0.05761622368015651     -34.39443896266258       34.428872879234994
-7.62                     -7.62                    68.7923871597715         0.1333552672459711       -1.538264701392606       -0.05968510672141747     -34.36484849362546       34.3993115133624
-7.62                     -7.62                    68.6984838697492         0.1301219097208692       -1.5441091696238232      -0.04583401544289245     -34.50347277121705       34.538037106338344
-7.62                     -7.62                    68.70555918858304        0.13036600078817123      -1.5444643116344423      -0.04758965248021241     -34.49132437276646       34.525919130014906
-7.62                     -7.62                    69.18460208869489        0.14672696563870796      -1.5486076934098065      -0.17000655490858207     -33.78192209873919       33.81782590146923
-7.62                     -7.62                    69.187213248294          0.1468151505152856       -1.548320638336179       -0.1597032690449396      -33.770444647263275      33.80629724780746
-7.62                     -7.62                    65.7871909704542         0.02879441200890447      -1.4900005688117375      0.6061947418486149       -33.62664902418523       33.665102084441116
-7.62                     -7.62                    65.8006054546022         0.029245692368696816     -1.491117480698648       0.6033334194232793       -33.65569884324566       33.69411680373126
-7.62                     -7.62                    65.75413697205957        0.027684007072387593     -1.4901141778705354      0.6117811528221546       -33.560556641631074      33.599191635189186
-7.62                     -7.62                    65.6994149855695         0.02585017925224112      -1.4821511069769393      0.6173665419418874       -33.45971342494185       33.498213920002605
-7.62                     -7.62                    65.32381969254986        0.01342023274617047      -1.4373619482435203      0.688614949151475        -32.69183177410833       32.73065939856776
-7.62                     -7.62                    65.32491921158537        0.013456179319881216     -1.4332312924597588      0.6898252150536734       -32.69686808800339       32.73553411095204
-7.62                     -7.62                    65.32833160789527        0.013567766217671386     -1.4388228007501453      0.7011927553662574       -32.70717422570321       32.74631472643359
-7.62                     -7.62                    68.17717117208963        0.11199530669956784      -1.5496904426924516      0.07918255442808686      -35.00155715451032       35.035936031245846
-7.62                     -7.62                    68.18810064395804        0.11237779664376919      -1.5499198242031298      0.07693642776357024      -34.991136145804035      35.02553039497858
-7.62                     -7.62                    68.1907956255479         0.11247209788149681      -1.5511462997096146      0.0745870321716211       -34.99122729398948       35.025670666071555
-7.62                     -7.62                    68.22708260946756        0.1137412814976585       -1.549959915557011       0.06524480230726226      -34.96359489485786       34.997994236752945
-7.62                     -7.62                    68.56199177388217        0.12540223431483707      -1.5418662818001394      -0.010233826827175108    -34.646091454754426      34.68038508225322
-7.62                     -7.62                    68.5837197525593         0.1261549795645141       -1.549460752414916       -0.02154133370625111     -34.63113528219256       34.6657875085199
-7.62                     -7.62                    68.65029038896091        0.12845783538139208      -1.5464910705225066      -0.03765899107466453     -34.55506335188022       34.58967267962029
-7.62                     -7.62                    66.26439958638643        0.045027124109390804     -1.5255802961579406      0.5033097627720622       -34.367114594326786      34.404640406446866
-7.62                     -7.62                    66.32547056711756        0.04712871728972638      -1.5270909074419379      0.49233104765256286      -34.45606849598158       34.49340593069709
-7.62                     -7.62                    66.18845158442662        0.04242070738256626      -1.521691524071656       0.522043529112409        -34.265715615399984      34.30345960943569
-7.62                     -7.62                    65.84052592392979        0.03059044879208993      -1.4910744933417703      0.598600208315375        -33.71658728719596       33.75484977968639
-7.62                     -7.62                    65.86232149951992        0.03132569793820191      -1.4913351394090313      0.5930181419375096       -33.753148110644275      33.791282283952945
-7.62                     -7.62                    65.8996013477209         0.03258520311231042      -1.4931351989258133      0.58426728176173         -33.81752160109888       33.85551045575296
-7.62                     -7.62                    68.09317907695497        0.10905329091003377      -1.550518330142637       0.09589585630129704      -35.052902755833706      35.087309596452364
-7.62                     -7.62                    68.05990703617552        0.10788667449572788      -1.5516349830648437      0.10601020088063251      -35.07118068547538       35.10564803499037
-7.62                     -7.62                    68.05051637686553        0.10755730725575352      -1.5518510916779809      0.10780546830272897      -35.078442554461276      35.11291779212286
-7.62                     -7.62                    66.40269355677995        0.04979283119032144      -1.5321475804739322      0.47503461969314564      -34.543230595121216      34.580455665678805
-7.62                     -7.62                    66.4700822679866         0.05212331603544709      -1.5357740124751835      0.4612619497462686       -34.625038913348256      34.662150599098126
-7.62                     -7.62                    70.14505371803315        0.178272972256838        -1.5107587108333362      -0.4088699726466736      -31.78933440872013       31.82783920856596
-7.62                     -7.62                    70.37826038262851        0.18561777733863505      -1.5060455463872024      -0.49353772694965414     -31.18726385640086       31.227506777270627
-7.62                     -7.62                    70.59263215389132        0.19224420489114155      -1.5247201551426333      -0.5495763945437275      -30.628118779223854      30.67097105927986
-7.62                     -7.62                    70.70956650793684        0.19580608525561977      -1.5320103138323518      -0.5531775101396619      -30.327070180955033      30.37077948818543
-7.62                     -7.62                    70.8970890607601         0.2014412316094044       -1.5637600450707296      -0.6079615015200801      -29.76697287882932       29.814218705759345
-7.62                     -7.62                    71.05875564391623        0.20621594901319495      -1.5652966880445298      -0.6523578424880014      -29.30172654657065       29.350756431244868
-7.62                     -7.62                    71.45206349543867        0.21751796208084048      -1.5694915036597017      -0.7587063038190678      -28.16123770132171       28.215142170576744
-7.62                     -7.62                    72.00000000000001        0.23247054336987266      -1.642084357939992       -0.9032403451579327      -26.41655065392773       26.48294607122179
-7.62                     -7.62                    64.44369962213231        -0.014438145883224403    -1.3024475094586734      0.8469077481791096       -30.520456021975082      30.559971499301763
-7.62                     -7.62                    63.77133760745231        -0.03430703308522452     -1.1690462548541873      0.952647858961317        -28.54763619871875       28.587440242588514
-7.62                     -7.62                    63.79123502830147        -0.033737763561772945    -1.1990049682941732      0.9573259465681048       -28.63875073932001       28.679820951164757
-7.62                     -7.62                    64.43765534758703        -0.014622625066208194    -1.2984882662716686      0.8484652191838578       -30.51233190983091       30.551732579045257
-7.62                     -7.62                    64.25395024923056        -0.020178031644375177    -1.2557988333252137      0.8659963976425438       -29.97529085380232       30.01408073289195
-7.62                     -7.62                    63.76722261485765        -0.0344244808562644      -1.1683412756366707      0.9536148908323234       -28.53522280439153       28.575047562386313
-7.62                     -7.62                    63.472489319995304       -0.042704434068231815    -1.098704053292252       1.026949022913799        -27.609045106502453      27.649975525943447
-7.62                     -7.62                    63.236203259993424       -0.04913970273702941     -1.0420644339332767      1.048885401857376        -26.861105766946153      26.901766891670256
-7.62                     -7.62                    63.32370899228382        -0.046777082881138424    -1.063040243376392       1.0407615247939601       -27.13809620648435       27.17884296328542
-7.62                     -7.62                    62.82980040748737        -0.05980193629394202     -0.8368549971383139      1.106235175003814        -25.596166053913375      25.63372386541133
-7.62                     -7.62                    62.47954862431308        -0.068571048673501       -0.8671785653820976      1.1520657504131258       -24.47912248571204       24.521555656769127
-7.62                     -7.62                    62.13653902898993        -0.07677261490476799     -0.7236151963861133      1.1949866653296821       -23.342083352801108      23.383850566830763
-7.62                     -7.62                    61.9544393552875         -0.08096823930538075     -0.649545485848245       1.2153182061705063       -22.7425851366568        22.784294730768345
-7.62                     -7.62                    61.550329783756304       -0.08990233998107897     -0.3571389264330094      1.255044174055653        -21.49986760405183       21.539428754805964
-7.62                     -7.62                    61.825011449391944       -0.08388444275236025     -0.5508824529935623      1.181587670211897        -22.369602866311773      22.407560181686826
-7.62                     -7.62                    61.899659101538646       -0.0822091894806358      -0.6273342181160348      1.2148527379186866       -22.56389266625238       22.60527964105301
-7.62                     -7.62                    61.184202892018675       -0.09755675038304276     -0.32651696856569146     1.3034602055829652       -20.309228614175375      20.353633305656746
-7.62                     -7.62                    61                       -0.10124179014572049     -0.2876879754039834      1.3147965016023342       -19.70143269839693       19.747351837177597
-7.62                     -7.62                    68.93382479622001        0.13820386120180433      -1.5422205373617288      -0.10485206449663664     -34.18854007345301       34.22346724829897
-7.62                     -7.62                    69.13714569351282        0.14512196607804123      -1.5385942074179866      -0.15441567531405553     -33.85641037172387       33.891704583783536
-7.62                     -7.62                    69.17921748946765        0.14654503995051932      -1.5484014344383183      -0.16861420707320462     -33.79067913340441       33.826557230225035
-7.62                     -7.62                    65.58436108659545        0.02201233193216934      -1.4686401267653353      0.6419932031600339       -33.25839940565825       33.29699971650807
-7.62                     -7.62                    65.39925071037939        0.01589274387409966      -1.447082076245369       0.6847947252205717       -32.85986131168847       32.8988369972934
-7.62                     -7.62                    68.348475137128          0.11797982675009605      -1.5494535416326656      0.03754589220537241      -34.86846699767148       34.902896824467234
-7.62                     -7.62                    68.35649679405525        0.11825946329061958      -1.5474223898348498      0.03478314270427063      -34.85668217134605       34.8910306226946
-7.62                     -7.62                    68.37842598158949        0.11902363130246447      -1.545758372133463       0.030516342370670912     -34.84217408762063       34.87645904251512
-7.62                     -7.62                    68.53460451839199        0.12445280854530197      -1.5463361048205115      -0.003276236963301926    -34.6842735885665        34.71872694165688
-7.62                     -7.62                    68.54061267761577        0.12466117957375454      -1.5463999990190587      -0.0043804007800645195   -34.67841161700835       34.712873756339114
-7.62                     -7.62                    68.55100525807278        0.12502152506771325      -1.5465105196581135      -0.00629032208416902     -34.6682719038638        34.7027493313685
-7.62                     -7.62                    66.18505483037197        0.042304323137480795     -1.5213862460019527      0.5226724878011737       -34.261026805755364      34.298771995856
-7.62                     -7.62                    66.11267353471739        0.03982808156677228      -1.5147749701575943      0.5376858103453799       -34.15904679611427       34.196843820153745
-7.62                     -7.62                    66.09311757058849        0.0391603645479907       -1.5134156539048824      0.5417579876102536       -34.128767026873064      34.166601637171965
-7.62                     -7.62                    65.98478780179518        0.0354723659171779       -1.506195286753492       0.5645029084172339       -33.9598029969324        33.99787504191856
-7.62                     -7.62                    65.96894407974713        0.03493451483073354      -1.5048155729823183      0.5679530358520655       -33.93473400810974       33.9728305085223
-7.62                     -7.62                    65.94529261256206        0.034132351136406426     -1.5040688228073664      0.5720890773789158       -33.902250057983125      33.940419383534646
-7.62                     -7.62                    65.9178682328708         0.03320328335405062      -1.4999740437074642      0.5790059039310194       -33.85263029412188       33.890791489711205
-7.62                     -7.62                    67.56111737404461        0.09034331248397966      -1.5552791851425454      0.2212699930873896       -35.22747484461803       35.26248484837355
-7.62                     -7.62                    67.56972051937137        0.09064637407950686      -1.5613614537400622      0.21691300355468002      -35.22468333418861       35.259937845013305
-7.62                     -7.62                    67.55681876247424        0.09019189421895392      -1.5546711167326634      0.22050349818107406      -35.22498299643189       35.259963856658004
-7.62                     -7.62                    67.6932129589457         0.09499571545533486      -1.5565047068568134      0.19123652775152777      -35.21231927186193       35.24722268229871
-7.62                     -7.62                    67.39905272377804        0.08463463588021514      -1.5579194195104833      0.25729432085148574      -35.21894758306914       35.25432714071
-7.62                     -7.62                    67.44318726895978        0.08618896858459914      -1.5569294054463896      0.25083932211046545      -35.22207486611781       35.25736103870323
-7.62                     -7.62                    67.33304477464911        0.08231039404835207      -1.553390860566882       0.27509759820704005      -35.20394954204824       35.239278727200286
-7.62                     -7.62                    67.69692112362507        0.09512628700438172      -1.5564763807129935      0.1904946556815048       -35.21149430518608       35.24639326430028
-7.62                     -7.62                    67.7388555452117         0.09660266504232548      -1.5558351510197248      0.1816537433966232       -35.20302410537515       35.2378564510281
-7.62                     -7.62                    67.46045805843546        0.08679731136575869      -1.5563649073045127      0.24612582851693787      -35.22551897617818       35.260743565461595
-7.62                     -7.62                    67.4967201471561         0.08807479337150707      -1.5551695674755486      0.23639173318868956      -35.228845753250525      35.26394768799205
-7.62                     -7.62                    67.55223476327865        0.09003042047865971      -1.5554805367473676      0.2218551377776521       -35.22564871125002       35.26067308675131
-7.62                     -7.62                    67.82778921209344        0.09973229596782969      -1.554217634842729       0.1596036205231428       -35.177322578850806      35.21200206731601
-7.62                     -7.62                    67.83624854924807        0.10002986101139263      -1.5539613633322347      0.15764122668900882      -35.17453552150812       35.20919760274179
-7.62                     -7.62                    68.00298713102113        0.10588941388880813      -1.5498287848186578      0.11865217554867513      -35.10658032310067       35.14097365730401
-7.62                     -7.62                    68.00957257598387        0.10612060636482591      -1.5522006743145909      0.11620444919213924      -35.100723033022405      35.135218625309626
-7.62                     -7.62                    68.02285467858094        0.10658676976951562      -1.5520872702744768      0.11347983341437384      -35.09349528191524       35.12798405358536
-7.62                     -7.62                    67.05998954627391        0.07270876952497662      -1.5518847291623672      0.33405314150034826      -35.11098240153802       35.146849402401145
-7.62                     -7.62                    67.19534165619247        0.0774647218721109       -1.556209547724265       0.30233053185794034      -35.16608638953008       35.201801429228226
-7.62                     -7.62                    66.99987241160603        0.07059934295853042      -1.5527190481858852      0.3508722250015204       -35.073442056684144      35.10954835175834
-7.62                     -7.62                    66.99967503484672        0.07059242028602705      -1.5527031508849518      0.3509217473721975       -35.07334247159707       35.10944866097276
-7.62                     -7.62                    67.24950742382686        0.0793701730547199       -1.5556037466406565      0.29186027354845123      -35.18901754851976       35.2245942697126
-7.62                     -7.62                    67.29864645593437        0.08109954312226841      -1.5543020644736885      0.28199999388070296      -35.197800969375265      35.2332310749941
-7.62                     -7.62                    66.99757711430168        0.07051884350660484      -1.552472725109471       0.35156868306744826      -35.070551560763676      35.10665690260618
-7.62                     -7.62                    66.8017006934491         0.06366107665784114      -1.5458453808171555      0.39011496740860707      -34.94057942806813       34.97693409088807
-7.62                     -7.62                    66.81888311733981        0.0642615317767497       -1.5444433836738867      0.38759189903180546      -34.95190332530524       34.988156266186024
-7.62                     -7.62                    66.74403861098122        0.061647429495352145     -1.5487722243634465      0.401637663566234        -34.90244657122575       34.9391010885086
-7.62                     -7.62                    66.82220587309462        0.06437766826205017      -1.5416471059110393      0.3871506902199826       -34.95308995832521       34.98921346773711
-7.62                     -7.62                    66.7190707525763         0.06077652605248779      -1.5441585947933163      0.4088826953780824       -34.87008075482489       34.906648975123105
-7.62                     -7.62                    66.52290996079626        0.05395403092000229      -1.5409061668858328      0.4501785436135961       -34.68527758704727       34.72240679772646
-7.62                     -7.62                    66.65818617055541        0.05865500002278825      -1.5404155928725132      0.4206281929960909       -34.817423570882106      34.85402117962467
-7.62                     -7.62                    66.66132830992792        0.05876440610261868      -1.5404146750852377      0.4198977347466055       -34.820531248988146      34.857116747382065
-7.62                     -7.62                    66.6996099095158         0.0600981164414667       -1.5446506324867357      0.4124681246580906       -34.851429454728446      34.888081210754684
-7.62                     -7.62                    66.50336298080879        0.053276341252881894     -1.5373243469280595      0.45424794265943547      -34.65936619000102       34.69641727950675
-7.62                     -7.62                    66.52075889052317        0.05387943381553367      -1.537297317745665       0.45078208901655614      -34.67791740755489       34.71490232249148
-7.62                     -7.62                    66.47334604932462        0.05223633112380047      -1.5358469858720794      0.4606472436532014       -34.62904195068927       34.666144410212326
