% Model:              ElectrodesShort.mph
% Version:            COMSOL 5.5.0.292
% Date:               Mar 23 2026, 08:38
% Dimension:          3
% Nodes:              135
% Expressions:        5
% Description:        Electric potential, Electric field, x component, Electric field, y component, Electric field, z component, Electric field norm
% Length unit:        mm
% x                       y                        z                        V (V) @ SL=0.16625       es.Ex (V/m) @ SL=0.16625 es.Ey (V/m) @ SL=0.16625 es.Ez (V/m) @ SL=0.16625 es.normE (V/m) @ SL=0.16625
-7.62                     -7.62                    64.12343011155527        -0.004519970871676255    0.636701334990105        -2.475810465275903       -31.526943404956313      31.630415528558366
-7.62                     -7.62                    64.16238086613934        -0.0032910723639816707   0.6364224222044175       -2.450909190702292       -31.608031399484712      31.709298924942587
-7.62                     -7.62                    64.29650018050364        9.756911644031978E-4     0.606324504124659        -2.4427317217313798      -31.994078766900092      32.092922020459
-7.62                     -7.62                    69.20349981949639        0.1701118079990666       -0.2660068211582143      -1.5857467246783585      -32.90472479389468       32.94398679676882
-7.62                     -7.62                    69.58340675579504        0.18244355766868225      -0.36712041373760584     -1.5498539545882721      -31.96984407136305       32.009494757431
-7.62                     -7.62                    69.81617962899735        0.18981838923788832      -0.4071485030353159      -1.5233130508550232      -31.40042726906347       31.439991813519512
-7.62                     -7.62                    64.47470271288033        0.006710848570386879     0.6119369001585329       -2.408708816876241       -32.384579099147956      32.479798465557685
-7.62                     -7.62                    64.5415283017163         0.008882607992936832     0.5785179846292721       -2.400924206951739       -32.58108274471595       32.67454778453856
-7.62                     -7.62                    68.95847169828374        0.16199125212517337      -0.21293555108613305     -1.6088553568324429      -33.42300146661874       33.46237863849077
-7.62                     -7.62                    69.02529728711957        0.16421925261334297      -0.2372720186037478      -1.614997402533504       -33.25349764650318       33.29353721590716
-7.62                     -7.62                    64.77080721439897        0.01640911468176853      0.5509828195255473       -2.3670646196961904      -33.08992435782502       33.17905470304739
-7.62                     -7.62                    64.78640200251068        0.016925400895707012     0.5434240100645553       -2.3568928433337106      -33.11295611362478       33.20117642663454
-7.62                     -7.62                    68.71359799748936        0.15375263044127924      -0.16057190782817088     -1.6378854257975206      -33.874775796367715      33.91472965040121
-7.62                     -7.62                    68.72919278560092        0.15428072126109357      -0.16721631657523517     -1.631848795462588       -33.85056324308802       33.89028656801361
-7.62                     -7.62                    65.28678945851196        0.03374744739752287      0.46776832543398683      -2.257309868050875       -34.086938399852855      34.16480095832613
-7.62                     -7.62                    65.30060545460222        0.03421859735407937      0.46554314204934144      -2.255071239089119       -34.117097751865764      34.19471356395371
-7.62                     -7.62                    65.25286686207035        0.032592214143631816     0.4697616925528054       -2.2652426545734565      -34.022900003898116      34.10146221215653
-7.62                     -7.62                    65.19989711572786        0.03079249950767283      0.4788207000534008       -2.2809293679212344      -33.92797743481562       34.00793379289019
-7.62                     -7.62                    64.8221169769981         0.018109223026425134     0.5355509956442717       -2.3582343430094497      -33.180066972994204      33.26807671654413
-7.62                     -7.62                    64.82354619942933        0.018156646880163392     0.541679755576709        -2.3558204941896257      -33.18723287942076       33.275151890733
-7.62                     -7.62                    64.82804531324294        0.018305980599530293     0.5354697435028661       -2.341822147284063       -33.199936737004464      33.28673396650407
-7.62                     -7.62                    68.1984838697492         0.1360821230943878       -0.04256741896506355     -1.7106569964972778      -34.700467056466664      34.742633367114685
-7.62                     -7.62                    68.20479303767257        0.13630103077769584      -0.04432888414419267     -1.710027870145268       -34.688399967019365      34.73055214992345
-7.62                     -7.62                    68.26133769527829        0.138259946631348        -0.051524207400746036    -1.6974373599960018      -34.599176162192144      34.640827637882204
-7.62                     -7.62                    68.30418385361871        0.13974096253247026      -0.05930565311049918     -1.6854398662667336      -34.533497148780896      34.5746532886181
-7.62                     -7.62                    68.68240842126625        0.15269535301033646      -0.15358695836152947     -1.636467741120157       -33.92406137886552       33.96385661344336
-7.62                     -7.62                    65.77166982783453        0.050459066657871955     0.3969062404610568       -2.1618413210232887      -34.80568045184289       34.875012317944766
-7.62                     -7.62                    65.80156241847448        0.05150011983118465      0.3915044390894096       -2.1544551669517418      -34.84695331989923       34.91568570816657
-7.62                     -7.62                    65.82547056711752        0.05233361278384656      0.38841613287584664      -2.1493983293596273      -34.87524072606408       34.94357159724018
-7.62                     -7.62                    65.75372567967084        0.0498347240122487       0.3984500387800267       -2.166468522413872       -34.78336986914981       34.853051053617854
-7.62                     -7.62                    65.3623214995198         0.03632693463491643      0.4619253401606187       -2.241461753281005       -34.209771683467324      34.286236370390185
-7.62                     -7.62                    65.42806469651367        0.0385795590902948       0.45386396627142744      -2.2304450474922177      -34.31883695975701       34.39423567809213
-7.62                     -7.62                    65.34052592392959        0.03558171384947315      0.4633828164427314       -2.244389941295566       -34.174972675066044      34.25172648472882
-7.62                     -7.62                    67.67717117208967        0.11783778580934937      0.06652024556828451      -1.7906075765054084      -35.25952216636267       35.305022359946605
-7.62                     -7.62                    67.688100643958          0.11822303805565271      0.06213269850260872      -1.7898670584341971      -35.24170114321686       35.2871787484761
-7.62                     -7.62                    67.75369985561747        0.12053322161759031      0.04513852419032105      -1.7800083463625356      -35.187902168962395      35.23292389586699
-7.62                     -7.62                    67.7650090651882         0.12093111399591942      0.046530370708183        -1.7796828993209886      -35.17982630559288       35.2248437212888
-7.62                     -7.62                    68.16581842853323        0.13494805476055396      -0.03986951896854407     -1.7156431625012638      -34.73659318622242       34.778958110108675
-7.62                     -7.62                    68.16912504401421        0.13506290824954204      -0.03871332262627902     -1.7179987931157257      -34.73141812446852       34.773904346667145
-7.62                     -7.62                    68.06174426021701        0.13132609645084387      -0.015332948177956496    -1.7314491004736396      -34.86696461641222       34.909932292242736
-7.62                     -7.62                    68.06573146048956        0.1314651216330321       -0.018035484737673357    -1.7299248946703045      -34.86517049243228       34.908066100634684
-7.62                     -7.62                    68.13224299772317        0.13378110274134264      -0.034801532294324034    -1.7213368601007915      -34.776876001056735      34.81946748767803
-7.62                     -7.62                    65.86891193705029        0.053849630073155        0.37951825587555277      -2.140942503068942       -34.92302235644865       34.990643884001365
-7.62                     -7.62                    65.88096399529809        0.05427060183484821      0.3766793378432567       -2.1386321066008804      -34.935868237147396      35.003293046430166
-7.62                     -7.62                    67.66123376094704        0.11727577039859119      0.06665720015007537      -1.7986601284815151      -35.267185390784896      35.313085206876394
-7.62                     -7.62                    67.63726788481084        0.11643037230267629      0.07291178422383382      -1.803365437068578       -35.282967308018556      35.32909884339818
-7.62                     -7.62                    63.75044549541889        -0.016093014810806258    0.6867645517829928       -2.534931877328045       -30.51472415848493       30.627535252460383
-7.62                     -7.62                    63.81757901957032        -0.014038084132880097    0.6778234998305559       -2.5209343411246334      -30.713234973562383      30.823973741074326
-7.62                     -7.62                    63.67685026552181        -0.01833109804430099     0.6983094632792568       -2.5460680000862546      -30.306696920695643      30.421472295246843
-7.62                     -7.62                    63.316469043372805       -0.029063738079071384    0.7552424041726891       -2.583058206368875       -29.22502572700255       29.348674749134943
-7.62                     -7.62                    63.48123875475557        -0.024205515165323224    0.7218795640080451       -2.571071029409232       -29.737668319632938      29.857334667242156
-7.62                     -7.62                    63.6210254968961         -0.02001861035052847     0.7052628169973776       -2.5536051359204297      -30.151433724370143      30.267594064714217
-7.62                     -7.62                    63.25002775722148        -0.03099872805290358     0.7705871890208087       -2.608337217303834       -29.028269497524303      29.155405290888257
-7.62                     -7.62                    62.840844860115595       -0.042620150515085185    0.8080822913510595       -2.677117102322377       -27.774800935667265      27.915220220967008
-7.62                     -7.62                    63.10820347543226        -0.035084833266509755    0.7835831279914167       -2.632176575848135       -28.59381273066502       28.725397865325686
-7.62                     -7.62                    61.68071658981772        -0.07263933899521507     0.9453829942575034       -2.817286809670236       -23.95732456679722       24.140924886437944
-7.62                     -7.62                    61.72042258410765        -0.07168550102670404     0.9412019866691352       -2.81315022002053        -24.088423193635165      24.270389516770678
-7.62                     -7.62                    61.658661457334276       -0.07316815602401154     0.9220062521264776       -2.7240803363809296      -23.86389670266742       24.036561215024054
-7.62                     -7.62                    62.228662785587424       -0.059009808464875316    0.8689115042269702       -2.7238024682764177      -25.770267253189502      25.928377916660693
-7.62                     -7.62                    62.51498065433051        -0.05149710754294954     0.8404668872081569       -2.701969258295076       -26.707777200733407      26.85725945559748
-7.62                     -7.62                    61                       -0.08815980545853874     1.082805595884011        -2.83132383957485        -21.65766605948709       21.86877595539544
-7.62                     -7.62                    69.88046894215142        0.19183201961351853      -0.419919543774145       -1.5233935381763644      -31.242878638358064      31.28281518512315
-7.62                     -7.62                    69.88517994075315        0.19197917766942754      -0.4208916687267079      -1.5234484312148169      -31.231372937585093      31.27133992149836
-7.62                     -7.62                    70.11826128245825        0.199177096411263        -0.45657179893169797     -1.5194172653906213      -30.557581401716206      30.59873964326732
-7.62                     -7.62                    70.25924841423696        0.20345966152817072      -0.5328546715360858      -1.5114513087757118      -30.18399646931971       30.226512567937476
-7.62                     -7.62                    70.31775301107042        0.2052209130751808       -0.5498704175694833      -1.500882924928419       -30.003288620221838      30.04583723344705
-7.62                     -7.62                    70.53394491418831        0.2116386186182474       -0.6120478135215169      -1.50298996054388        -29.367163746506538      29.411968445883726
-7.62                     -7.62                    70.54761544216045        0.21203980830815802      -0.5692687464238486      -1.514396402267545       -29.338785355235423      29.3833590572867
-7.62                     -7.62                    70.62126436454918        0.21419261908641052      -0.5914217675520177      -1.516091587531875       -29.120021577125613      29.165458509359674
-7.62                     -7.62                    70.89556410700509        0.22206376534049668      -0.7141488051531014      -1.5159874286039212      -28.270817973892846      28.320440944882364
-7.62                     -7.62                    71.05584364126481        0.22655523281731618      -0.962064358737365       -1.7264750400181086      -27.575167966281754      27.64590697124639
-7.62                     -7.62                    71.18109525502558        0.22998504010932527      -0.9517374261480498      -1.7424085509103264      -27.286044573473706      27.358180132315272
-7.62                     -7.62                    71.71517073176017        0.24409546742609034      -1.117166037928655       -1.5386461000679432      -25.75876883467769       25.82885331670607
-7.62                     -7.62                    72.00000000000001        0.25130189392446606      -1.224796229630286       -1.6206095320568252      -24.842958599509537      24.925871961406987
-7.62                     -7.62                    65.0910778470867         0.027110610375120157     0.49737804651473894      -2.302417871698136       -33.74714123031344       33.82924850178897
-7.62                     -7.62                    64.89236846505325        0.020445808898437015     0.5261546296183948       -2.332186049560903       -33.33375257027821       33.41938046823376
-7.62                     -7.62                    68.44031779524973        0.14443014749394245      -0.09271244190034622     -1.6737958161816096      -34.35620784141361       34.3970813481836
-7.62                     -7.62                    68.59910590953477        0.1498630865825089       -0.12935540377996801     -1.6543900101417535      -34.073839495929406      34.11422397066219
-7.62                     -7.62                    65.69901153612544        0.04793341603287241      0.40611490122961413      -2.1758172766291466      -34.714384759925         34.784876302703616
-7.62                     -7.62                    65.6739746157751         0.04706470448262259      0.40943890802729754      -2.1808608185687035      -34.68023366458101       34.751149637951734
-7.62                     -7.62                    65.66465695432302        0.0467416254564417       0.41095382475675635      -2.182695602485495       -34.66742998315442       34.738505217929365
-7.62                     -7.62                    65.61001297303469        0.044849310613485883     0.4202208360603925       -2.194492077724732       -34.594097108445055      34.66617855747562
-7.62                     -7.62                    65.47797764878572        0.040294631588200784     0.4398223495949054       -2.2210758086149056      -34.397563790457866      34.4720033674493
-7.62                     -7.62                    65.48060240996676        0.04038492219463828      0.43939618327368635      -2.2205955187066486      -34.40153845911016       34.475933081168534
-7.62                     -7.62                    65.46266227287853        0.039767997565800045     0.4396727885596192       -2.2231478859295635      -34.37997278868022       34.45458209925213
-7.62                     -7.62                    65.57817661948432        0.04374870689921255      0.4249541005147206       -2.2017509078966953      -34.54672913562517       34.61942788403964
-7.62                     -7.62                    65.58823867026652        0.0440963973229442       0.42345383856832153      -2.1988702044191655      -34.56203602317282       34.634501258086225
-7.62                     -7.62                    65.43180030642672        0.038707779809317985     0.44652159056101937      -2.228617950254886       -34.32710445720036       34.40227056335934
-7.62                     -7.62                    67.80916766607784        0.1224837768253585       0.03870003256463406      -1.7724619175593546      -35.143887003472855      35.18857645109542
-7.62                     -7.62                    67.85039270512675        0.12393166344234843      0.0301324827081757       -1.7638508786431046      -35.09918130615799       35.143485971814954
-7.62                     -7.62                    67.94617937818086        0.1272888408041036       0.011878578162050624     -1.74932400747241        -34.99830973283366       35.04200279292121
-7.62                     -7.62                    67.94894107793796        0.12738549426596207      0.008117111693401569     -1.750093213423554       -34.99640036972335       35.04013314730904
-7.62                     -7.62                    68.00523317082163        0.12935388978448564      -0.004798872608631655    -1.7429443728190108      -34.938662183093584      34.9821096170636
-7.62                     -7.62                    68.0411978121889         0.13060946020210365      -0.00991808696244334     -1.7340971433788468      -34.89111986361962       34.93418721837672
-7.62                     -7.62                    68.04402911193742        0.13070824293518052      -0.011601221060004718    -1.7335807778430024      -34.88729381957506       34.93034077925661
-7.62                     -7.62                    66.14406875830457        0.06349968505756118      0.33652914200006023      -2.0861888970466254      -35.2042593922816        35.26762418049482
-7.62                     -7.62                    66.14899359329011        0.06367307346684772      0.3353575429044895       -2.085569563333138       -35.208996610811454      35.27230510507099
-7.62                     -7.62                    66.07045138149401        0.060910526009380295     0.34962952211691345      -2.101374244628431       -35.13671607723691       35.2012333762765
-7.62                     -7.62                    66.06469200341496        0.060708175593831216     0.34981500978147295      -2.102095651139704       -35.13212271000798       35.196693350067235
-7.62                     -7.62                    66.02341896553538        0.059258967822048335     0.3553351501769413       -2.1100145000069404      -35.091088154750324      35.156263910484704
-7.62                     -7.62                    65.98049089650054        0.05775349772842965      0.3621131899109855       -2.1190252812421724      -35.05023662227306       35.116100030928585
-7.62                     -7.62                    65.98803583360247        0.058017961985608255     0.36136627143852706      -2.116814783558141       -35.055660798559245      35.12137304311531
-7.62                     -7.62                    66.19888407018738        0.06543067539774393      0.32603435515898127      -2.0748124818415477      -35.24923469203097       35.31175005022307
-7.62                     -7.62                    66.43411750234749        0.07374259441696553      0.28914519971193897      -2.0291057773443555      -35.408964828956286      35.46823459745962
-7.62                     -7.62                    66.48211464702526        0.07544279194913764      0.27920214575024715      -2.020835501051806       -35.4361866602635        35.4948595571463
-7.62                     -7.62                    66.35567760851693        0.07096690394339365      0.30383075303626583      -2.0448898457290454      -35.36345308298641       35.42382957219952
-7.62                     -7.62                    66.31159876730706        0.06940869632877925      0.3118781831411468       -2.055701306746272       -35.33607305116716       35.39719246693302
-7.62                     -7.62                    66.51265848543805        0.07652541751587155      0.2739744067534957       -2.0140056238268187      -35.453061399510005      35.511277690696915
-7.62                     -7.62                    66.60184149990376        0.07968880286501309      0.2566042020394832       -1.994095227101539       -35.48685638242159       35.5437650987887
-7.62                     -7.62                    66.7227741114152         0.08398274492121693      0.24229708175114695      -1.9709886831594687      -35.51834945951225       35.573819763879754
-7.62                     -7.62                    66.7285776384769         0.08418888122057144      0.23953686955304931      -1.970184953376961       -35.52723841577591       35.58263166368913
-7.62                     -7.62                    66.62044843765581        0.0803491619735652       0.2537476527190563       -1.9898484615571377      -35.49302406343523       35.54966444200021
-7.62                     -7.62                    66.90012561201327        0.09028584987270341      0.21344322353666811      -1.9354573503249881      -35.54956254242172       35.60285030895917
-7.62                     -7.62                    66.94836939724459        0.09200108883612121      0.20121152544032128      -1.9250092446594138      -35.553255519431666      35.605900138881374
-7.62                     -7.62                    66.88736412670498        0.08983219270877664      0.215350464766896        -1.9383143579761182      -35.54829996611579       35.60175654169271
-7.62                     -7.62                    66.73434229537173        0.08439368507957931      0.2382200241336676       -1.9725724817255923      -35.53316052631911       35.58866797120569
-7.62                     -7.62                    66.7335775128918         0.08436651409374037      0.23869437838487562      -1.9687507828554174      -35.5276955400919        35.58300303572946
-7.62                     -7.62                    66.99345237815268        0.0936037951900755       0.19188958277771562      -1.915245786481961       -35.54720357987922       35.599279071127185
-7.62                     -7.62                    66.99855723632723        0.09378525741521478      0.1911097958159793       -1.9140740400621041      -35.54673044715497       35.59873941402407
-7.62                     -7.62                    67.03078813196488        0.09493091223363306      0.18644319301728274      -1.9091225907083071      -35.546350741782156      35.59806962727575
-7.62                     -7.62                    67.04988652062457        0.095609755006704        0.18473946233979177      -1.9038093352268177      -35.542078682514074      35.59351030353516
-7.62                     -7.62                    67.12799279516551        0.09838548585556106      0.168230161099018        -1.8917738546398937      -35.53618853898382       35.58690497335231
-7.62                     -7.62                    67.28031534029947        0.1037948935572288       0.14183794667843586      -1.867296645860506       -35.48951152282284       35.538884941642934
-7.62                     -7.62                    67.28511356581548        0.10396517670944247      0.1373184014405524       -1.8637456902511644      -35.48188996735655       35.53106978402003
-7.62                     -7.62                    67.30018758345219        0.10449999133819668      0.136112568104636        -1.860368479115948       -35.47823028257022       35.52723351870178
-7.62                     -7.62                    66.33688303633384        0.07030239082616936      0.30788085070174986      -2.049591324914587       -35.35126697057832       35.41197102171095
-7.62                     -7.62                    65.9034449905516         0.05505634724646017      0.3746086468078751       -2.1349825475848334      -34.963933116701526      35.03105909198197
-7.62                     -7.62                    65.92454961735181        0.05579449353932019      0.3709014342929535       -2.1309772970523966      -34.98720128124914       35.05399956651387
-7.62                     -7.62                    67.33044350077974        0.10557323881083662      0.12974180937959545      -1.8580428988315134      -35.4708388997326        35.51970676401739
-7.62                     -7.62                    67.36896373612748        0.10693918208860134      0.12471648515906963      -1.8492403872493242      -35.45030441428253       35.498722896419864
-7.62                     -7.62                    67.37138177809025        0.10702490082943815      0.12437972440443446      -1.8487946770443955      -35.44899523113486       35.49739110090673
-7.62                     -7.62                    67.37175231728632        0.10703803575392509      0.1250990863146484       -1.8490763836586552      -35.44804365472217       35.49645802331678
-7.62                     -7.62                    67.37227803097986        0.10705667120565429      0.12500288799618886      -1.84896241638819        -35.4477764786086        35.49618493608321
-7.62                     -7.62                    67.49249516503492        0.11131451322602123      0.10123803617531024      -1.824318117101555       -35.388746581088114      35.435882524819796
-7.62                     -7.62                    67.60066323949364        0.11513827793653335      0.0786115004220278       -1.8067792624133858      -35.31168383050213       35.35796439299683
