% Model:              ElectrodesShort.mph
% Version:            COMSOL 5.5.0.292
% Date:               Mar 13 2026, 15:12
% Dimension:          3
% Nodes:              99
% Expressions:        5
% Description:        Electric potential, Electric field, x component, Electric field, y component, Electric field, z component, Electric field norm
% Length unit:        mm
% x                       y                        z                        V (V) @ SL=0.179         es.Ex (V/m) @ SL=0.179   es.Ey (V/m) @ SL=0.179   es.Ez (V/m) @ SL=0.179   es.normE (V/m) @ SL=0.179
-7.62                     -7.62                    67.40000000000003        0.005267534311013686     -1.312037165749512       -1.2605407380410263      -26.656029997983907      26.718052693450304
-7.62                     -7.62                    67.65000000000003        0.011987125101236977     -1.3704515743319998      -1.3605110457535465      -27.15268436764765       27.22126735095748
-7.62                     -7.62                    72.15000000000002        0.14425478227059774      -2.4847953441565096      -3.102545292975151       -28.989906585903082      29.261146236206997
-7.62                     -7.62                    72.40000000000003        0.1514635669959005       -2.572521812032221       -3.179706828899043       -28.592729562560578      28.883777243097107
-7.62                     -7.62                    67.90000000000003        0.0188309896690989       -1.4090502757659635      -1.4527331473935021      -27.60833804695676       27.682416548997526
-7.62                     -7.62                    71.90000000000003        0.1369615960777022       -2.413712888330646       -3.027365730531122       -29.318279789128837      29.572833529564395
-7.62                     -7.62                    68.90000000000003        0.04729257044400807      -1.6529019170833408      -1.8856442590609106      -29.20011058286002       29.307579174515265
-7.62                     -7.62                    69.04277536239346        0.05147424277835946      -1.6921491618907396      -1.9492060708030006      -29.379571342488454      29.492744622379785
-7.62                     -7.62                    66.86574127914591        -0.00863691930439396     -1.1567277670575526      -1.0128935659368943      -25.448338723210025      25.494742914456484
-7.62                     -7.62                    66.31387267626296        -0.022312591334235077    -1.025794909252351       -0.8014017170461725      -24.117256641801713      24.152361537424483
-7.62                     -7.62                    66.62011519764977        -0.014814051066188851    -1.09827645264666        -0.9228945379539994      -24.853998127714988      24.89536439635065
-7.62                     -7.62                    66.27131826486715        -0.023336528758562642    -1.0120289955687456      -0.7824219144269335      -24.009447256610226      24.04350108257938
-7.62                     -7.62                    65.95191251166182        -0.03087967865783726     -0.9310621838540117      -0.6376114432182236      -23.231994146648162      23.25938471182375
-7.62                     -7.62                    64.21887876508909        -0.06727313637126033     -0.4720264378082888      -0.027990177662465587    -18.925942610672166      18.93184872405471
-7.62                     -7.62                    64.36574948550764        -0.06448768021668647     -0.3614333251325412      -0.007014992843079604    -19.153069778049648      19.156481022919625
-7.62                     -7.62                    64.88325440300306        -0.054230555073037215    -0.6417269357001754      -0.226302852136941       -20.46930980828468       20.48061694550308
-7.62                     -7.62                    64.19312099357667        -0.06775980390748454     -0.4593861496827607      -0.018110193527533625    -18.862073017124047      18.86767505860086
-7.62                     -7.62                    63.84136452965447        -0.0742036464117188      -0.4308466444653489      0.036487542186735666     -17.867205680571143      17.872436851297465
-7.62                     -7.62                    63.01232942771642        -0.0881333352939707      -0.11844005425894899     0.18653436325663364      -15.737375958223856      15.738927065261171
-7.62                     -7.62                    65.22124769525007        -0.047164400294462346    -0.7332373750953802      -0.35639080421687996     -21.343086713542675      21.358651687673756
-7.62                     -7.62                    54.900000000000006       -0.15894214204902968     1.82090922175815         0.7689023755172215       -3.3863282023009025      3.9209871143193467
-7.62                     -7.62                    57.39864772016026        -0.14735227050300614     1.6471061238651483       1.1019779115609918       -5.89058702869462        6.215008402525914
-7.62                     -7.62                    61.475279054425485       -0.11010215807450677     0.4198104676543828       0.847561309417302        -12.707436674225196      12.742587956589388
-7.62                     -7.62                    62.3903739899342         -0.09757297737882134     -0.015584691781178606    0.8097660944089213       -14.474982213160356      14.497623049368501
-7.62                     -7.62                    60.33800755015757        -0.12319371456088143     0.4261200718736369       0.7565309890151823       -10.266298284862913      10.302950932949893
-7.62                     -7.62                    60.41358551422692        -0.12238606009153098     0.32289005331838894      0.7154540624360646       -10.755955438757843      10.78455886453093
-7.62                     -7.62                    58.36155491058576        -0.14061074969581028     2.3981047670791753       1.027802218341895        -7.346828597164202       7.796356476587387
-7.62                     -7.62                    59.64543680448579        -0.12993295217254416     0.5979774201734304       0.8376935345167761       -9.195215658021969       9.25263737808528
-7.62                     -7.62                    58.33110179041245        -0.14086161285305396     1.0809373637854307       1.4593597538656862       -8.197301292816318       8.39606484972802
-7.62                     -7.62                    72.95424621622814        0.16707676383842526      -2.6724132494061124      -3.3563497018754163      -27.67229591190039       28.00290765139684
-7.62                     -7.62                    73.14542949661113        0.17233227997579195      -2.7238344003114996      -3.4017263945668077      -27.306529923064147      27.652081164769687
-7.62                     -7.62                    73.43531319133662        0.18015936848242167      -2.798194410242453       -3.48093834251749        -26.686492605579858      27.057636838600466
-7.62                     -7.62                    73.49238061753121        0.18167930934229748      -2.828524497753733       -3.488823139072366       -26.573566479059238      26.95045218817489
-7.62                     -7.62                    73.54088673616656        0.18296579320623754      -2.8431763691854144      -3.501221083013931       -26.470622589604574      26.852114650800214
-7.62                     -7.62                    73.58648892770117        0.18416793291996217      -2.847453721792256       -3.541643940624283       -26.30929015469937       26.69887606143881
-7.62                     -7.62                    73.63555000846137        0.18545594221751477      -2.808977011506766       -3.5310068078830454      -26.250650159064136      26.635596383450174
-7.62                     -7.62                    73.9180225148045         0.1927740575117924       -2.8919275721378668      -3.5830160344128217      -25.564058387387732      25.97541780643999
-7.62                     -7.62                    74.72356119377187        0.21257378767535415      -3.055812953499803       -3.8076249065028946      -23.51006607144121       24.01164731789407
-7.62                     -7.62                    74.79797319756376        0.21431615876708207      -3.0762020030499926      -3.8178280994804936      -23.32031082851745       23.83014324966218
-7.62                     -7.62                    74.91705234729697        0.2170750418096286       -3.1076194963996526      -3.8379895284697003      -23.055011193194105      23.57797709035599
-7.62                     -7.62                    75.7230773411192         0.23473454263918364      -3.2715304357551958      -3.9834402055506644      -20.78142766688604       21.411175659857786
-7.62                     -7.62                    76.62240602022703        0.2522168903130333       -3.224492520427674       -4.115085752702676       -18.449868617024492      19.17625966532201
-7.62                     -7.62                    75.25555743476542        0.22471204578383952      -3.155380618522102       -3.919757198851727       -22.093738584367124      22.65952797346069
-7.62                     -7.62                    75.07135531248527        0.2205977492404084       -3.1589385251537516      -3.8663697665246346      -22.60460949498652       23.14942932769685
-7.62                     -7.62                    76.97395794667251        0.25855177226166237      -3.3571842261447955      -4.372716334800593       -17.589654833639415      18.433320136087307
-7.62                     -7.62                    77.43408126723173        0.2663022233785666       -2.8411889361732636      -4.052726530346406       -16.182676685479326      16.92264670811168
-7.62                     -7.62                    78.72249759808686        0.28498948866128254      -2.709891140335092       -3.5556950348982816      -12.646033968885973      13.413003105788235
-7.62                     -7.62                    82.28514250727699        0.3183956565411762       -5.8233222946421535      -5.1673121096293         -5.973265827259742       9.81285389826563
-7.62                     -7.62                    84.88873328150787        0.330604451273234        -4.862557115780605       -3.648663515864074       -2.471832087903902       6.562557506568423
-7.62                     -7.62                    84.9                     0.33063227734507744      -4.849389286169319       -3.651656092625368       -2.467684571378089       6.552910484009317
-7.62                     -7.62                    68.16663877062837        0.026259564082587755     -1.4714723122651137      -1.5698444709247         -28.110726302112614      28.19295258856265
-7.62                     -7.62                    68.40000000000003        0.03286298020010446      -1.5265395983345125      -1.6623051171525738      -28.48745814587008       28.57671872452284
-7.62                     -7.62                    71.40000000000003        0.12216379949238962      -2.2879045582350273      -2.866182587028561       -29.82617874463537       30.050797799671095
-7.62                     -7.62                    71.63058810093361        0.12901920221056573      -2.341820929143964       -2.9414342082779967      -29.635964966270222      29.873509669066348
-7.62                     -7.62                    68.72216603497591        0.0421199317392125       -1.6096535947116308      -1.8095565602142472      -28.96690971703481       29.067977882791023
-7.62                     -7.62                    68.7055060320428         0.041637533533468184     -1.6061031015563572      -1.8034634789272772      -28.947049751770827      29.047611554552105
-7.62                     -7.62                    68.64088084145362        0.03976987189413392      -1.588395418192789       -1.7764649358302051      -28.852502072346212      28.95074616495251
-7.62                     -7.62                    68.62150150583545        0.03921099927385711      -1.5834777135560643      -1.7688569001440584      -28.823707613305004      28.9213135417431
-7.62                     -7.62                    68.6256551841579         0.03933074006335266      -1.5848893024525808      -1.7699843306974685      -28.830633998927667      28.928362819421135
-7.62                     -7.62                    68.61466066829577        0.039013855076720234     -1.5819419860606416      -1.7658336422735772      -28.81373692275136       28.91110762930005
-7.62                     -7.62                    68.61323887137625        0.03897288926752167      -1.5816228010764064      -1.7652052895751638      -28.811664618442023      28.90898646588657
-7.62                     -7.62                    71.01610270637607        0.11066172396493112      -2.1867592789040553      -2.7284208286197114      -30.07418882500885       30.276773768752278
-7.62                     -7.62                    71.06075406823966        0.11200406044242016      -2.199036606463112       -2.744411911811113       -30.051031166729985      30.25610736565483
-7.62                     -7.62                    71.06423591543069        0.11210869039711573      -2.200079104668987       -2.7455767491197776      -30.04904212092606       30.254313281535524
-7.62                     -7.62                    70.90000000000003        0.10716706429162738      -2.1577439938780287      -2.6872145177253515      -30.122420148778133      30.3189243975921
-7.62                     -7.62                    71.15214055478653        0.11474808491163424      -2.2212853831761095      -2.7769135662325226      -30.002001681440873      30.212008582698026
-7.62                     -7.62                    71.18870879496808        0.11584479225311473      -2.2302792955735384      -2.7897887622823934      -29.97941038737251       30.19142451506586
-7.62                     -7.62                    71.24507478537704        0.11753363002213368      -2.2421837291728224      -2.810228924205262       -29.947009988010507      30.16203212158969
-7.62                     -7.62                    71.08874793084102        0.1128450947829698       -2.205924692575877       -2.754404054959437       -30.036676544932135      30.243260130352503
-7.62                     -7.62                    69.5342786742393         0.0660355164226317       -1.809647620146844       -2.1524325777778586      -29.846609141847146      29.978790298762494
-7.62                     -7.62                    69.56195774528817        0.06686191970751151      -1.816704438894888       -2.1648390435502733      -29.866614862009776      30.00002710696114
-7.62                     -7.62                    69.63490451221455        0.06904251572506577      -1.8353023214445372      -2.19753564545141        -29.91933890767325       30.05601999926703
-7.62                     -7.62                    69.34506193869692        0.060402676306837426     -1.7629418517314548      -2.0764332972197153      -29.687367838905786      29.812067161015296
-7.62                     -7.62                    69.48159170193149        0.06446407494722706      -1.7989180294027136      -2.1318138146987735      -29.807722746195147      29.93795369645511
-7.62                     -7.62                    69.23050635895572        0.0570079913156855       -1.7355183961429077      -2.027061839760279       -29.57655782161831       29.69669638833744
-7.62                     -7.62                    69.3394325678002         0.0602355699985713       -1.7615420931349064      -2.074022555214796       -29.68207550819901       29.806546371222773
-7.62                     -7.62                    69.50848467779771        0.0652659334568724       -1.8035598785265847      -2.1418221424850685      -29.828684525449148      29.959817269873987
-7.62                     -7.62                    69.90000000000049        0.07699643168055502      -1.894427193617247       -2.301754357341622       -30.081142410408056      30.22849741930134
-7.62                     -7.62                    70.11911522766597        0.08359634934426331      -1.9590165421212191      -2.388261672849346       -30.163646789353294      30.321397185208482
-7.62                     -7.62                    70.1287482592395         0.08388691377048937      -1.9609166067328943      -2.392253129188159       -30.164167399338034      30.32235254507735
-7.62                     -7.62                    70.19519065979874        0.08589150667656853      -1.9776581877087587      -2.420791202035023       -30.177593449299394      30.339059120916378
-7.62                     -7.62                    70.2320050584025         0.08700262363854361      -1.9878594010019057      -2.436180727545903       -30.18557988044155       30.34890103865271
-7.62                     -7.62                    69.1121068897919         0.053513441548512494     -1.704817502916324       -1.9772419837865254      -29.451485085549322      29.56697249170148
-7.62                     -7.62                    69.18026549976534        0.05552334364850704      -1.7220620150021233      -2.005585606129536       -29.525825880723882      29.643924590813736
-7.62                     -7.62                    69.04710567682588        0.051601444316389536     -1.6886767652779184      -1.9483228930796912      -29.37719944005002       29.490124419096016
-7.62                     -7.62                    69.08736585408938        0.0527851268341014       -1.6984309288501294      -1.9663682285743427      -29.423553386420608      29.538056224368674
-7.62                     -7.62                    70.34467403425326        0.09040464016198006      -2.0146346973620766      -2.4776628618216705      -30.204584452616245      30.372923602707274
-7.62                     -7.62                    70.36901418606455        0.09113986852515525      -2.0221448210863002      -2.4874476592603827      -30.2041144319644        30.373755022291963
-7.62                     -7.62                    70.29559951669569        0.08892265106549109      -2.005279202680555       -2.459753446512451       -30.195697331902977      30.362010293427964
-7.62                     -7.62                    70.39946812423582        0.09205971906110244      -2.028008567509673       -2.4990039960861097      -30.204013695103896      30.374994370639325
-7.62                     -7.62                    70.41865877562742        0.09263936201945965      -2.0329254730148207      -2.507063129061967       -30.20487462548975       30.376843197631466
-7.62                     -7.62                    70.4450681944052         0.09343707084723013      -2.041412730289931       -2.516304431270001       -30.21071121751771       30.38397976227718
-7.62                     -7.62                    70.55994412926418        0.09690715134185066      -2.06966409509816        -2.558713093770767       -30.20198695356875       30.38075934051533
-7.62                     -7.62                    70.6156006829212         0.09858796024875202      -2.084253429054229       -2.580996555585898       -30.19502795469529       30.376724128208767
-7.62                     -7.62                    70.6181794176722         0.09866583253377499      -2.0842346590018224      -2.5820844161007557      -30.197980784655044      30.37975045183963
-7.62                     -7.62                    70.65578759744876        0.0998013762106217       -2.0940278869872486      -2.596875209373728       -30.190141352231166      30.37389254791421
-7.62                     -7.62                    70.70555532750589        0.1013036128682947       -2.1069949642950068      -2.616420841181923       -30.17978594787681       30.366174695825585
-7.62                     -7.62                    70.77200683984802        0.10330870991387273      -2.1246133479681175      -2.6394405701503985      -30.1681946976953        30.357875415117096
-7.62                     -7.62                    70.61675389438476        0.0986227813990667       -2.0886179780410004      -2.582610073270189       -30.200409633791637      30.38251046074974
