% Model:              ElectrodesShort.mph
% Version:            COMSOL 5.5.0.292
% Date:               Mar 13 2026, 15:12
% Dimension:          3
% Nodes:              114
% Expressions:        5
% Description:        Electric potential, Electric field, x component, Electric field, y component, Electric field, z component, Electric field norm
% Length unit:        mm
% x                       y                        z                        V (V) @ SL=0.18          es.Ex (V/m) @ SL=0.18    es.Ey (V/m) @ SL=0.18    es.Ez (V/m) @ SL=0.18    es.normE (V/m) @ SL=0.18
-7.62                     -7.62                    73.15000000000002        0.13232045965506947      -1.8536979322004186      -1.9450008758255593      -29.67100242537549       29.79240858603823
-7.62                     -7.62                    73.40000000000003        0.13969391602221665      -1.9293104163701287      -1.9903997468732655      -29.336029775521464      29.466702781705138
-7.62                     -7.62                    68.40000000000003        -0.009321306527507407    -0.04616131833435691     -0.9273908607598488      -26.89760156885638       26.913623963206376
-7.62                     -7.62                    68.65000000000003        -0.002517955968160944    -0.1604675126558579      -0.9766272734257578      -27.45096278312427       27.468798815643375
-7.62                     -7.62                    72.90000000000003        0.12486092327605439      -1.7801898213160143      -1.8855925494816574      -29.991735317706116      30.103633043702853
-7.62                     -7.62                    68.90000000000003        0.0044184262177509115    -0.26800434026509934     -1.0092431266264088      -27.985153260487763      28.004628207280888
-7.62                     -7.62                    73.85558486757833        0.1528661291224062       -2.108385237536581       -2.136849199468813       -28.544776748487195      28.702189680094232
-7.62                     -7.62                    74.15771107148575        0.16139023330992922      -2.227013509672375       -2.2292280902659485      -27.906558239310343      28.08389288924728
-7.62                     -7.62                    74.36790219888181        0.1672097373373326       -2.296562171844748       -2.276714831841474       -27.460844091310157      27.65059830169899
-7.62                     -7.62                    74.03297855721213        0.15789372771953147      -2.183533881833675       -2.1879345177147584      -28.157501893841555      28.3266621854502
-7.62                     -7.62                    73.99679420859309        0.15687354978716989      -2.170080550067013       -2.1765658800230696      -28.231535372405574      28.39834991874082
-7.62                     -7.62                    74.50356659473233        0.17091363493484407      -2.350599171070698       -2.3125606132343535      -27.150896974321626      27.35040145159022
-7.62                     -7.62                    74.52203565630339        0.17141470681613935      -2.317601873918534       -2.3145303705151274      -27.156549022191797      27.35336330466025
-7.62                     -7.62                    74.80138132481042        0.17890391671859257      -2.414880163644214       -2.3819622185139178      -26.46311111057344       26.67961093917498
-7.62                     -7.62                    75.68336013978481        0.2012730459440732       -2.717579227373827       -2.630591698607634       -24.22587291308092       24.519342730639927
-7.62                     -7.62                    76.20143674945537        0.21346191903527859      -2.8472973301630304      -2.7530731013235332      -22.828454048162158      23.16948052539452
-7.62                     -7.62                    77.00879602968853        0.23101358726337448      -3.0494471901377125      -2.943945445862468       -20.650746991125985      21.081254570000148
-7.62                     -7.62                    75.46388463456864        0.19588732780910753      -2.653262311301429       -2.5550801630054396      -24.841448794766002      25.113060621018253
-7.62                     -7.62                    75.0121598948918         0.18442610872768161      -2.481910031288262       -2.4349455560312308      -25.93855283854477       26.17054375862726
-7.62                     -7.62                    75.20473929269515        0.18937550997210953      -2.5473869058194905      -2.4880540994185023      -25.462597034004627      25.710376134270675
-7.62                     -7.62                    77.12597095884709        0.2334107978850047       -3.1770601446432494      -2.968284397339204       -20.1813175240178        20.644369702933435
-7.62                     -7.62                    77.12668485855995        0.23342520462189142      -3.1772093901680876      -2.9683211478131284      -20.17935674744946       20.6424811659442
-7.62                     -7.62                    77.458394432396          0.2399677861158813       -3.246555502189537       -2.9853970533364382      -19.268292702810612      19.766634055297622
-7.62                     -7.62                    82.17940821689041        0.3022461172608088       -4.357087068647522       -3.7144261571928965      -8.263273244321685       10.053002243675113
-7.62                     -7.62                    84.9                     0.3184967213218005       -4.629784071058792       -4.159259764101996       -3.6831011892711434      7.231844626394985
-7.62                     -7.62                    77.4878842933561         0.24052884904540733      -3.2045238464455124      -3.082152241041257       -18.987625842725063      19.50124536184072
-7.62                     -7.62                    79.00086995292382        0.26630748216996813      -3.516250881786803       -3.1064673613566         -15.077125028653434      15.790309017257645
-7.62                     -7.62                    81.85484462271481        0.2994284940367159       -3.602403412245131       -3.3118811330860787      -8.913378683147272       10.168293196669296
-7.62                     -7.62                    81.52732492627347        0.2964324734175578       -3.799001904542969       -3.3828476753786774      -9.381830134588995       10.67215116739911
-7.62                     -7.62                    77.07678008320522        0.2324006854200931       -2.875905538440687       -2.758142131655319       -20.312461124783738      20.699619746031487
-7.62                     -7.62                    80.78557663026241        0.289003062932283        -3.9562391392401537      -2.957359495710314       -11.16544674342829       12.209218005018055
-7.62                     -7.62                    80.78871427537104        0.2890380870079468       -3.959015199825423       -2.959244695018228       -11.159624736221332      12.205251114611501
-7.62                     -7.62                    80.78413093205313        0.2889869191268469       -3.9549600443528306      -2.956490873170331       -11.168129285622229      12.211046596256182
-7.62                     -7.62                    80.75920826607815        0.2887291611471808       -3.6330534310939413      -3.832981358613381       -10.3757428185734        11.642459463783355
-7.62                     -7.62                    81.05494787908242        0.29206446323993573      -4.250719101569494       -3.3361071121961814      -11.06842310088232       12.316988815641553
-7.62                     -7.62                    81.11423673033796        0.2926359449360534       -4.7114985331643595      -3.065038727314459       -9.590177525830853       11.115942866212409
-7.62                     -7.62                    67.77615997242951        -0.025654226362983003    0.15564589476416657      -0.8127692798698689      -25.419397175091788      25.43286402063129
-7.62                     -7.62                    67.42551823951685        -0.03440752772384393     0.2907945758808843       -0.75882720952721        -24.50975815921727       24.52322624049695
-7.62                     -7.62                    67.56543310525986        -0.030953223466173463    0.24486675068150987      -0.7736791260529379      -24.867471906031188      24.880709357108966
-7.62                     -7.62                    67.77192962834698        -0.025761735965265962    0.15737876464813638      -0.812040580424668       -25.408431571490475      25.421891607489254
-7.62                     -7.62                    67.1693992795315         -0.040599536013022144    0.3776997845014848       -0.7243554184135448      -23.83794175344928       23.85193524517954
-7.62                     -7.62                    66.97795674011118        -0.04510908217025098     0.44906846895171526      -0.6889953532295721      -23.31126130184122       23.325764308362942
-7.62                     -7.62                    66.66979602678018        -0.05217103790056335     0.5690136235523617       -0.6425040166096103      -22.484425844503015      22.500799840719058
-7.62                     -7.62                    65.1986923927106         -0.08222146916186288     1.020656759668432        -0.5741881759706899      -18.40262411862003       18.439848338142507
-7.62                     -7.62                    65.40176542496224        -0.0784238521436586      0.9586038192220758       -0.6168960674969242      -18.991207218712535      19.025389185622444
-7.62                     -7.62                    65.13721387966949        -0.0833476098524751      1.033830459843312        -0.5591234466386013      -18.23263704520119       18.270481057441366
-7.62                     -7.62                    64.97440691526629        -0.08627936566786804     1.0934000462218645       -0.5149623873987408      -17.663020406744863      17.704321500995142
-7.62                     -7.62                    65.63641241633366        -0.07390424556552802     0.8940269000731842       -0.5449095346298094      -19.58795786408446       19.61591965175564
-7.62                     -7.62                    66.16567876975165        -0.06314703503406767     0.7528719474691143       -0.5777347242740207      -21.061558062973354      21.08292725455637
-7.62                     -7.62                    64.86982413210183        -0.08811297949221318     1.1396526478699283       -0.5195530064261977      -17.402288984796144      17.447303671187726
-7.62                     -7.62                    64.74566793973669        -0.0902543664503011      1.1945617517764582       -0.5250027923449736      -17.09275982904418       17.142492359168887
-7.62                     -7.62                    63.601280970223996       -0.10806595807626655     1.7865640108202356       -0.3925775839230521      -14.131472940007093      14.24936684833083
-7.62                     -7.62                    64.61739500741412        -0.09240444033119724     1.1131904790880558       -0.5333430214850523      -16.595192455068524      16.641035437798408
-7.62                     -7.62                    61.12369086617771        -0.13617947446157452     2.1994946736392125       -1.6809431153453431      -9.302878819619377       9.706023949533453
-7.62                     -7.62                    61.296327644504096       -0.13464446809987946     2.2287018745996168       -0.4927766215278879      -9.07545611026815        9.358089786594899
-7.62                     -7.62                    61.037834086253476       -0.1369694097953105      2.951488873325154        -1.4552932974362633      -8.676471884600677       9.279565157656425
-7.62                     -7.62                    61.00531366816603        -0.13725055107618156     2.941630636829391        -1.447727504762856       -8.613667505064651       9.216527199514298
-7.62                     -7.62                    60.92220591989938        -0.13795974418562368     2.9061541253385315       -1.4299999656245639      -8.479659967873438       9.077183752280426
-7.62                     -7.62                    60.791271965700666       -0.13903797401694976     2.3909379141130778       -1.5888852839151246      -7.584053212338986       8.109192541935032
-7.62                     -7.62                    60.81687006065882        -0.13884315634040012     2.9495009545226054       -1.4022577585263463      -8.293586315880178       8.91344247084324
-7.62                     -7.62                    58.50425599896224        -0.15396780709898533     2.83861113913367         0.07063992202516145      -4.585455475030903       5.39343166372657
-7.62                     -7.62                    60.832340846412244       -0.13871463664415637     2.943134561233279        -1.4063322849548427      -8.320915144116785       8.937417992732811
-7.62                     -7.62                    54.900000000000006       -0.16607273329601935     3.0789192569596295       0.07737311385323811      -1.962487664405371       3.65199783989085
-7.62                     -7.62                    72.40000000000003        0.10972934730841849      -1.598969505905597       -1.7683142646863692      -30.494454239378342      30.587503627740677
-7.62                     -7.62                    72.63544107570019        0.11688570943571878      -1.6792993974409143      -1.8250250874003626      -30.29811679118592       30.39945137873755
-7.62                     -7.62                    69.16941189906649        0.012034759963764834     -0.36428946148051367     -1.0556483729391424      -28.541847376938907      28.563685896387902
-7.62                     -7.62                    69.40000000000003        0.01866226390251581      -0.44908534834340585     -1.0952478671277355      -28.94341738013707       28.967613902103935
-7.62                     -7.62                    71.90000000000003        0.09440123106185645      -1.4078081808715126      -1.6431249555766954      -30.78074350536599       30.856700313495903
-7.62                     -7.62                    72.05225383804141        0.09908297039080156      -1.4612175144073376      -1.6787202578864395      -30.71645813401267       30.796981323292094
-7.62                     -7.62                    72.06177683379116        0.09937545995961634      -1.4653543362719477      -1.6811552207694938      -30.71254765543877       30.79341049144685
-7.62                     -7.62                    72.0703080560106         0.09963745613503394      -1.4687048626589156      -1.6834017239136188      -30.708001165888746      30.78915833441859
-7.62                     -7.62                    72.10559702948503        0.10072077814565342      -1.4825079318729948      -1.6924418530103083      -30.689878477053412      30.772241226959625
-7.62                     -7.62                    72.15792082510988        0.10232583061185684      -1.501379441867984       -1.7043279270538605      -30.660887346998834      30.744900175748704
-7.62                     -7.62                    72.18707193885646        0.10321940012661712      -1.5123884657216706      -1.7119839591195074      -30.64449438572764       30.729517472691033
-7.62                     -7.62                    72.23401710272552        0.10465736680331142      -1.527909008070651       -1.724205213119518       -30.619505858766374      30.706050358014465
-7.62                     -7.62                    69.77819623759926        0.02972618542915898      -0.5971967122237345      -1.1719060192284374      -29.544796083148867      29.57405929570446
-7.62                     -7.62                    69.90000000000003        0.033335517973550596     -0.6412008439655352      -1.1956397797702607      -29.7161551371442        29.747110265370193
-7.62                     -7.62                    69.76359910440766        0.029295070009376933     -0.591555635529815       -1.1690716803642687      -29.524041713781465      29.553099766029025
-7.62                     -7.62                    69.69683618756412        0.027327193199287128     -0.5664612331407017      -1.1570248181677698      -29.42529273643879       29.453479206769867
-7.62                     -7.62                    69.73884242385711        0.028564597472519857     -0.5822145186119378      -1.1644263039006404      -29.48811343887867       29.51683750924335
-7.62                     -7.62                    69.6506176362722         0.025968817394129665     -0.5476647029247945      -1.1486671411584206      -29.36166491877549       29.38922829253021
-7.62                     -7.62                    71.22920619435618        0.07372319334838837      -1.1489365292545735      -1.4811142888712805      -30.806139695621106      30.863117108145065
-7.62                     -7.62                    71.30368814264216        0.0760184466834687       -1.1794114944556         -1.4996490705916443      -30.826333350545298      30.88531668361394
-7.62                     -7.62                    71.31026433373304        0.07622117240471232      -1.1821170749293728      -1.501238764364607       -30.828063460220015      30.887224143872544
-7.62                     -7.62                    70.96862785657741        0.06570623763047714      -1.0453086556376476      -1.419581798524888       -30.71648438614537       30.767032611426252
-7.62                     -7.62                    71.31923650178913        0.07649777844453563      -1.185595342603456       -1.503824755871447       -30.83015069665968       30.889566477882465
-7.62                     -7.62                    70.92492708184592        0.06436450283024964      -1.0361737688344306      -1.411842494155394       -30.693757125606794      30.743677102670418
-7.62                     -7.62                    71.337133357834          0.07704955021702764      -1.1923204963678131      -1.5101363011881688      -30.830421345714456      30.890403366879344
-7.62                     -7.62                    71.4283680721682         0.07986270556119614      -1.2255345705848129      -1.530916655263626       -30.842222964660607      30.904503849615516
-7.62                     -7.62                    71.48914844639708        0.08173735087558945      -1.2504737774060501      -1.544877838748128       -30.843653049656254      30.907624717085667
-7.62                     -7.62                    71.57725241178339        0.08445489033489546      -1.2866243118902219      -1.5651152203387344      -30.845726024042733      30.912195032433235
-7.62                     -7.62                    71.66247027920677        0.08708276675215008      -1.3142499856159588      -1.5851914425190046      -30.834917929528245      30.903596047302806
-7.62                     -7.62                    71.69922497807754        0.08821597404861238      -1.3302612725641438      -1.5947272772302483      -30.828146153477846      30.89801523402785
-7.62                     -7.62                    71.7663720678515         0.09028568617473735      -1.3546444517944565      -1.6093234593271717      -30.81894055591618       30.890647137549795
-7.62                     -7.62                    71.61578239633371        0.08564310095313349      -1.297306018935771       -1.5722194351340022      -30.83917855386403       30.90646875228691
-7.62                     -7.62                    71.61862894775587        0.08573088568628146      -1.2985004335721442      -1.5729105449518102      -30.838774961961576      30.90615136365115
-7.62                     -7.62                    70.91023107281903        0.06391351217844271      -1.0323943537982725      -1.4058285267725097      -30.684945325804506      30.734476758130334
-7.62                     -7.62                    70.89415505638591        0.06342047490058642      -1.0242651331206645      -1.4072109204647631      -30.66478609429599       30.714141170583474
-7.62                     -7.62                    70.83683521402259        0.06166283362571848      -1.0005500198750994      -1.388735236073444       -30.63957209581381       30.687343712233492
-7.62                     -7.62                    70.8295972032046         0.06144108198059286      -0.9975230789569451      -1.387522430210538       -30.63462345376565       30.68224934618382
-7.62                     -7.62                    70.82918472711037        0.061428445988923885     -0.992998977707946       -1.3889406988532471      -30.632982833368885      30.680528686841967
-7.62                     -7.62                    70.53759010031887        0.0525245996096134       -0.8894205169358003      -1.331936800756921       -30.41928513496272       30.461418755851163
-7.62                     -7.62                    70.5785731380505         0.05377200476529544      -0.9037801961971577      -1.3435369219992879      -30.469069568521782      30.512064998541703
-7.62                     -7.62                    70.4963641616606         0.0512711800914362       -0.8752713046131646      -1.3220254087967866      -30.385479941966025      30.426817814911292
-7.62                     -7.62                    70.33294484554972        0.04631759874257127      -0.8108121637983956      -1.2886328874268926      -30.23242805768703       30.270739953736573
-7.62                     -7.62                    70.35466800034332        0.04697457249757635      -0.8188975383807389      -1.2930175972484221      -30.253607349924255      30.292296799162507
-7.62                     -7.62                    70.25331683531425        0.04391375688375938      -0.7788596092935833      -1.2700921330942538      -30.151031760186456      30.187819936545754
-7.62                     -7.62                    70.31337721305374        0.04572629590346673      -0.8006815950326045      -1.2844800565391488      -30.208391199436793      30.246287026517503
-7.62                     -7.62                    70.1961828218936         0.0421930262455797       -0.757727510793508       -1.2570196621513503      -30.083800985745803      30.119583847749432
-7.62                     -7.62                    70.14432542086433        0.040634536010547735     -0.7382308066102894      -1.2470835294799656      -30.023878417393917      30.058833598058673
-7.62                     -7.62                    70.05377247774888        0.03792053184354021      -0.7046810373953534      -1.2277655963770187      -29.92140276377421       29.954871508255657
-7.62                     -7.62                    70.08027576242559        0.03871385045689897      -0.7121575743114263      -1.233849137390541       -29.94963182324028       29.983495434190715
-7.62                     -7.62                    70.08762760361452        0.0389340696356058       -0.7151332765522511      -1.2353859773800142      -29.958947006859205      29.99293416583542
-7.62                     -7.62                    70.09904967445176        0.0392763443445165       -0.7197631694194868      -1.2377501672504394      -29.97255559630073       30.00673546838975
