% Model:              ElectrodesShort.mph
% Version:            COMSOL 5.5.0.292
% Date:               Mar 13 2026, 15:12
% Dimension:          3
% Nodes:              94
% Expressions:        5
% Description:        Electric potential, Electric field, x component, Electric field, y component, Electric field, z component, Electric field norm
% Length unit:        mm
% x                       y                        z                        V (V) @ SL=0.182         es.Ex (V/m) @ SL=0.182   es.Ey (V/m) @ SL=0.182   es.Ez (V/m) @ SL=0.182   es.normE (V/m) @ SL=0.182
-7.62                     -7.62                    70.40000000000003        0.00669434524569176      1.8713163639561152       -0.33808649550509884     -26.516704284514375      26.584802679817578
-7.62                     -7.62                    70.65000000000003        0.013380106077338874     1.7325555171626377       -0.41603754487606537     -27.020834677448192      27.079518875430264
-7.62                     -7.62                    75.15000000000003        0.14533128876778642      -0.9628964831029521      -1.9677064588050257      -28.91363876568859       28.996509186761173
-7.62                     -7.62                    75.40000000000003        0.15252076846119586      -1.08123340519046        -2.080674607248426       -28.54935700554023       28.64548931206338
-7.62                     -7.62                    70.90000000000003        0.02019268628199265      1.6144329990738129       -0.4806182914709325      -27.49087814813572       27.54243578927327
-7.62                     -7.62                    74.90000000000003        0.13805669270306134      -0.8069839815723737      -1.8820673229738651      -29.246328364357623      29.317931771367324
-7.62                     -7.62                    71.90000000000003        0.04856161484199432      1.0283303082880195       -0.8186045567701399      -29.125803709236962      29.155445775228856
-7.62                     -7.62                    72.03236506379916        0.052428378503022524     0.9428414792674005       -0.8676674974279024      -29.299068802764918      29.327073322278043
-7.62                     -7.62                    54.900000000000006       -0.1559952876889869      4.300682469542551        3.311528384806725        -2.3620981209776097      5.919594367888497
-7.62                     -7.62                    57.95449092441189        -0.148244279422523       5.479384803350143        3.0707057349846867       -2.713057417719142       6.8420444375853915
-7.62                     -7.62                    63.651031679281644       -0.11401098545922549     3.5853796831655353       1.7926462403192147       -9.874305481101327       10.656943124062103
-7.62                     -7.62                    63.88668556836402        -0.1117027192958014      3.872925241918212        2.2062941060671433       -10.015196180372524      10.96227340214165
-7.62                     -7.62                    61.9483943292411         -0.12788109035334344     3.6236371699189007       2.1553772240484683       -6.428214271668081       7.687544213833306
-7.62                     -7.62                    64.69577418075315        -0.10258701041583328     3.790006557976483        1.539576882032602        -12.093394052258418      12.766543243509311
-7.62                     -7.62                    65.91689998580048        -0.08615924745350599     3.6225214532115366       1.13588979339408         -14.812536351350623      15.291309311559894
-7.62                     -7.62                    66.45721105118491        -0.07783083581038121     3.4604602238997613       0.9748856686396188       -16.12863676410079       16.52447006401158
-7.62                     -7.62                    64.29848729744452        -0.10722427487895886     3.811591357888892        1.598773687764517        -11.165725972635943      11.90620604895692
-7.62                     -7.62                    66.58328491552416        -0.07577519131357568     3.41228767418839         0.8070387750342825       -16.682269771326965      17.04679276225168
-7.62                     -7.62                    66.74575304907242        -0.07302879172204736     3.395136431830362        0.6774268123281502       -16.881227980551174      17.232577189966296
-7.62                     -7.62                    67.56447874688868        -0.05828486356753223     3.1050367717856666       0.5103611957677359       -19.128263750116748      19.385360352552567
-7.62                     -7.62                    67.67271287428196        -0.05619845416288023     3.0662150486879725       0.47979698699445095      -19.425369099362392      19.671727034502915
-7.62                     -7.62                    67.81086072377538        -0.05348868703395885     3.0143132507901207       0.48212357831292785      -19.695145455592513      19.93031063570261
-7.62                     -7.62                    69.37644835639506        -0.019164174745228354    2.4356468634696897       0.018746352642611264     -23.997709231000137      24.12100278605548
-7.62                     -7.62                    69.58856933881206        -0.014014640859296195    2.315921548874936        -0.04744214554415216     -24.549627764218258      24.65866920049403
-7.62                     -7.62                    69.76760966398986        -0.009577977757259581    2.2230351324005095       -0.10597824438723258     -25.010862004003922      25.109686074730156
-7.62                     -7.62                    69.27712465428998        -0.021535306170573868    2.4810051547542074       0.05522507172211988      -23.750776423243245      23.880071547073534
-7.62                     -7.62                    67.82375643489928        -0.05323446915835854     3.1095643779634923       0.5611661812704583       -19.82569875368597       20.075921627053802
-7.62                     -7.62                    67.90330662423388        -0.05164891247589316     3.0864392486011045       0.5342718123296955       -20.03692434728636       20.280283304323742
-7.62                     -7.62                    68.34684789578216        -0.04249079379281897     2.8902758849573527       0.37604980196023874      -21.25852782610728       21.457402300327452
-7.62                     -7.62                    69.01887668970375        -0.027582520283742834    2.5930601868083496       0.13632070881576386      -23.109432725344046      23.25485810223887
-7.62                     -7.62                    84.70512815981877        0.31467882046291534      -4.530537394999342       -4.58183103608107        -7.8019338976175785      10.118750776329922
-7.62                     -7.62                    84.9                     0.316156322959556        -4.400390058406799       -4.480408654128254       -7.361903989544613       9.676524413516749
-7.62                     -7.62                    84.38066588915906        0.3120285284260132       -4.432579359312875       -4.376352938587402       -7.620243144969294       9.842171021077649
-7.62                     -7.62                    81.77939221464241        0.2860100034481631       -2.982461213556949       -5.052071419656759       -12.336175735387641      13.660151254435327
-7.62                     -7.62                    81.79703990735653        0.28623829840945003      -2.7806772536738436      -4.576204352059918       -12.922097018081338      13.987651826007747
-7.62                     -7.62                    82.12926840669351        0.2903587648866464       -4.197251703129048       -4.102244228717186       -11.629812616517839      13.026813542335695
-7.62                     -7.62                    83.83457426219432        0.30760162726536255      -4.375499050910538       -4.309866024346704       -8.592791232634553       10.562007302590654
-7.62                     -7.62                    81.41338991945618        0.2812899162986653       -3.508141465245103       -4.068976510960027       -13.710108660617912      14.725172524383773
-7.62                     -7.62                    81.75559202485458        0.28571565143176864      -3.2416374987580028      -4.418723495505411       -12.61478995896492       13.75377245383563
-7.62                     -7.62                    81.26201502585585        0.27919060070130447      -3.328890488080674       -4.091851593029105       -13.934048663203818      14.899076262961437
-7.62                     -7.62                    78.647298449046          0.23376245451413094      -2.750269900803488       -3.1082957566202083      -20.706008148205925      21.11786590712847
-7.62                     -7.62                    80.41985329671918        0.2665181954587632       -3.9013058897703417      -3.181635632890263       -16.252781575712106      17.014579098345063
-7.62                     -7.62                    80.54101589795826        0.26845658952893175      -3.2574111369882246      -3.697510048338742       -15.836156951269757      16.585119078806468
-7.62                     -7.62                    80.97161678843511        0.2750275425027401       -3.2581587282978433      -3.9052513264843185      -14.683765878111274      15.539612819661109
-7.62                     -7.62                    78.37315385296634        0.22796139456002876      -2.6277353419520892      -3.0271194368140257      -21.613194130238156      21.981778945832442
-7.62                     -7.62                    77.64776867862707        0.2115688797345547       -2.2601305083132317      -2.8183561437117035      -23.510808600034494      23.786749300710714
-7.62                     -7.62                    77.68279775282195        0.21239089877583098      -2.2850268313183477      -2.8286693869966086      -23.422720770632566      23.70330285888021
-7.62                     -7.62                    77.53378567418875        0.20887271144464747      -2.1774891227032773      -2.7879360227040593      -23.913809286951654      24.174042292485492
-7.62                     -7.62                    77.26300391379195        0.20230810382794231      -2.0411235480965146      -2.685456472339233       -24.581302904480488      24.81165682265583
-7.62                     -7.62                    77.18372181116361        0.2003515098205495       -1.9995603320740187      -2.660161183165613       -24.776469973095104      24.998963245896984
-7.62                     -7.62                    76.68323466032015        0.18764289521338534      -1.737182634240881       -2.5004786471521925      -26.00850856530178       26.186116832416147
-7.62                     -7.62                    76.66933352082283        0.18728102322464796      -1.7520779991876338      -2.493339516084376       -26.075204395448402      26.252672312016486
-7.62                     -7.62                    76.34844455450902        0.17880062590223517      -1.5880639871648157      -2.3722162542401293      -26.780444833193236      26.932166319253213
-7.62                     -7.62                    76.34000935887303        0.1785747015067576       -1.5866578471350152      -2.3699337581693385      -26.792305202056127      26.943676200216437
-7.62                     -7.62                    76.17758062105247        0.1741954443460118       -1.507101534647461       -2.317042376032383       -27.132270326567976      27.27269941685325
-7.62                     -7.62                    75.94469880674865        0.16782104378865478      -1.3793575285705515      -2.2477166576309173      -27.611382168690966      27.737038101248686
-7.62                     -7.62                    71.16941189906638        0.02766951033972808      1.4581264657913238       -0.5717753607053879      -28.011237675807088      28.05499057180211
-7.62                     -7.62                    71.40000000000003        0.03417258521171494      1.3272862323011765       -0.6449018945079388      -28.388606229996867      28.426933546863843
-7.62                     -7.62                    74.63058810093358        0.13013275787388462      -0.6323944819371263      -1.7883520755720028      -29.570313415842662      29.631091128039003
-7.62                     -7.62                    74.40000000000003        0.12329195711003693      -0.496009804064486       -1.7068676693711495      -29.766177533206985      29.819200993736718
-7.62                     -7.62                    71.5583200738155         0.03868846860743633      1.2309004751217625       -0.7023305153809076      -28.64822013821326       28.683251231686025
-7.62                     -7.62                    71.57029522477579        0.03903164378027915      1.2236662837503083       -0.7065868104139952      -28.66632628890231       28.70113041321631
-7.62                     -7.62                    71.59162443435157        0.03964341778718756      1.2106234802852214       -0.7133367581195103      -28.69953539299553       28.733913592048427
-7.62                     -7.62                    71.74026481348808        0.0439254191278282       1.121950366752344        -0.7666698706105137      -28.91605150897439       28.94796348943424
-7.62                     -7.62                    71.74148977238977        0.043960841761334614     1.1215813751111954       -0.7649022410974169      -28.91434670306981       28.94619949984378
-7.62                     -7.62                    71.68161473722262        0.04223199580644393      1.1569387386980239       -0.7456258505850766      -28.830619227459714      28.86345561766523
-7.62                     -7.62                    71.742500777923          0.043990075040845136     1.1213147331154403       -0.7659371603113865      -28.91616980962209       28.948037635099684
-7.62                     -7.62                    71.75444621101741        0.04433559217739454      1.1157645536949872       -0.76606870542048        -28.941020989233202      28.972650684739627
-7.62                     -7.62                    74.21289716242977        0.11770931811179126      -0.3826046889894883      -1.6381077831770199      -29.906730701966012      29.954003484296692
-7.62                     -7.62                    74.14582152608958        0.11570192368975248      -0.34359514544155445     -1.61408173444525        -29.947872719738655      29.993305884932184
-7.62                     -7.62                    74.19888871894025        0.11729031263279785      -0.3746606022333481      -1.633371504396223       -29.915438592579846      29.96233868082822
-7.62                     -7.62                    74.1123550344083         0.11469933118836187      -0.32354957952691166     -1.6023418390575586      -29.966708749162656      30.011261502255252
-7.62                     -7.62                    73.90000000000003        0.10832438107807581      -0.1992211860212509      -1.5281034181833775      -30.068140925212475      30.10760514946449
-7.62                     -7.62                    74.062431561611          0.11320261810673726      -0.29388781676700404     -1.5856051120999268      -29.99716452650182       30.040479244685507
-7.62                     -7.62                    72.0426616464923         0.05273004616891471      0.9409668056872533       -0.869163886937784       -29.308241083526752      29.336220952977012
-7.62                     -7.62                    72.06779820904482        0.053467102524102014     0.9230444594939513       -0.8786125165821943      -29.334855402600056      29.362522243839187
-7.62                     -7.62                    72.10103055811216        0.054442592728778        0.9031007111952363       -0.8894319005384688      -29.37241218777801       29.39974962017512
-7.62                     -7.62                    72.22258852300075        0.058021430776697205     0.8318658913042682       -0.9345290736400429      -29.50505359689869       29.531568417651954
-7.62                     -7.62                    72.26591290285171        0.05930069518465929      0.8057759298938691       -0.9488605628213236      -29.550274656301255      29.576482946417315
-7.62                     -7.62                    72.32955670465476        0.061183429359362274     0.7639825569490597       -0.9712429924409491      -29.610178232410362      29.635951768971356
-7.62                     -7.62                    72.36396541247005        0.06220284201447372      0.7456754780232089       -0.9821879370973647      -29.649721683239306      29.675355447843515
-7.62                     -7.62                    72.45194275132025        0.06481451796125187      0.6925684484683217       -1.010554034285292       -29.721838787014775      29.747076686513584
-7.62                     -7.62                    72.55571829432262        0.06790347193342833      0.627374370983155        -1.048091471848295       -29.810051462536535      29.835067664307456
-7.62                     -7.62                    72.62180470427363        0.0698750683482134       0.5873426799946753       -1.0719860489439341      -29.859663796465426      29.884672451790767
-7.62                     -7.62                    72.90000000000038        0.07820578015342125      0.4226262638725409       -1.1756426456827         -30.02928194105275       30.05525781763483
-7.62                     -7.62                    73.14235030320694        0.08549388595202266      0.26662197728366177      -1.2567473696333167      -30.122310271047716      30.14969448095814
-7.62                     -7.62                    73.1468055823028         0.0856280540501762       0.2648584196497268       -1.2573144421709799      -30.11491289337556       30.142311924677387
-7.62                     -7.62                    73.4000000000002         0.09325939127414518      0.11202319731444277      -1.3481542835619393      -30.155081174053883      30.185410213922914
-7.62                     -7.62                    73.69466546399205        0.10214318850172989      -0.069149159893243       -1.4521841345184683      -30.129766430412445      30.164821324152907
-7.62                     -7.62                    73.76837295148908        0.10436343564633159      -0.11498632477673709     -1.479182013996791       -30.11505319366428       30.15157757303333
-7.62                     -7.62                    73.62707464832144        0.10010623703672267      -0.028512685771602264    -1.4297427723001022      -30.141284215821827      30.175188343192563
-7.62                     -7.62                    73.62685276695457        0.10009954924212171      -0.02912615898507198     -1.4292107899224646      -30.14205599996137       30.175934645342394
-7.62                     -7.62                    73.60923511309579        0.09956848272723405      -0.018100340475257326    -1.421719455023947       -30.148634918177894      30.182143748592384
-7.62                     -7.62                    73.62671619148168        0.10009543257451388      -0.029043571868044182    -1.4291550314699322      -30.142086102623296      30.175961993795642
