% Model:              ElectrodesShort.mph
% Version:            COMSOL 5.5.0.292
% Date:               Mar 13 2026, 15:12
% Dimension:          3
% Nodes:              103
% Expressions:        5
% Description:        Electric potential, Electric field, x component, Electric field, y component, Electric field, z component, Electric field norm
% Length unit:        mm
% x                       y                        z                        V (V) @ SL=0.178         es.Ex (V/m) @ SL=0.178   es.Ey (V/m) @ SL=0.178   es.Ez (V/m) @ SL=0.178   es.normE (V/m) @ SL=0.178
-7.62                     -7.62                    66.40000000000006        -0.018962251698116023    1.8201151579092354       -0.9802779564222206      -27.16992862580217       27.248463912504914
-7.62                     -7.62                    66.65000000000003        -0.01210664455816467     1.6998381788567123       -1.0657312340460763      -27.73560364796684       27.808073335177895
-7.62                     -7.62                    71.15000000000003        0.12444883305089649      -0.8133758802171656      -2.656426266435279       -30.117411582194784      30.245275023428814
-7.62                     -7.62                    71.40000000000003        0.13193893457633066      -0.9344330713899183      -2.7373192437359957      -29.745530121845178      29.885826808650172
-7.62                     -7.62                    66.90000000000003        -0.0051098265583171066   1.6082561135801825       -1.1510229195633102      -28.252766955317245      28.3219028689757
-7.62                     -7.62                    70.90000000000003        0.11687376262485656      -0.662077362431903       -2.583640595919635       -30.44553301726063       30.562133856585273
-7.62                     -7.62                    67.90000000000003        0.024106484506381295     1.0628006931226963       -1.5238572693670562      -30.051494966339675      30.108869723100593
-7.62                     -7.62                    68.014680541603          0.027562711884414108     0.9927229335650161       -1.5690000323230322      -30.222236146785264      30.279214283668416
-7.62                     -7.62                    69.77286458943664        0.08199630999412838      -0.006210635250909036    -2.216945176330796       -31.250348546948         31.328887129813303
-7.62                     -7.62                    69.90000000000003        0.08596691920947819      -0.08139472477745358     -2.2608947164846427      -31.212317644262882      31.29420142369212
-7.62                     -7.62                    66.09724500313735        -0.027065100288362794    1.9987777813514995       -0.8401660275228817      -26.391157207066026      26.480071191390348
-7.62                     -7.62                    66.0378904789477         -0.028626965221712743    2.0276459669148483       -0.8177434192912214      -26.23717920616638       26.328114728620992
-7.62                     -7.62                    65.9002548134499         -0.03221356505069602     2.0935136122778903       -0.7704209297561206      -25.875321033530305      25.971303129455304
-7.62                     -7.62                    65.78308904923978        -0.03522723150082365     2.1549806561139757       -0.7202974539006295      -25.56250152059703       25.663286111502686
-7.62                     -7.62                    65.6985067939831         -0.03738014586390488     2.1922056603475237       -0.6852642940657326      -25.374720899684206      25.478457832978265
-7.62                     -7.62                    65.16551050047794        -0.0505123074238428      2.3870427569969053       -0.4514501614684576      -23.877590872612924      24.000856781621554
-7.62                     -7.62                    65.4619561890432         -0.043305065658669456    2.3015609547505846       -0.5968479253735453      -24.721874527405678      24.835951570721924
-7.62                     -7.62                    64.92740552606979        -0.05612180754610102     2.5103052389631166       -0.3730328934553455      -23.235410232405982      23.373597810362057
-7.62                     -7.62                    65.0212454655106         -0.053928334794760634    2.474008588488151        -0.3911763478503829      -23.51382606103554       23.646855043740274
-7.62                     -7.62                    64.8830496880585         -0.05714716547556119     2.514121717839089        -0.43996030510233197     -23.113021659126538      23.253518944396962
-7.62                     -7.62                    64.50468633381888        -0.06569142311723125     2.7099850956312608       -0.27511763496825026     -22.028870443322838      22.19664033002104
-7.62                     -7.62                    64.52721156885089        -0.0651938920566529      2.6325793948277436       -0.32498398673278217     -22.1138730817189        22.27239258669971
-7.62                     -7.62                    60.89973282690459        -0.1271168050087168      3.9598817337849894       0.26370054631402695      -11.832609979562584      12.480419073578194
-7.62                     -7.62                    62.90177737100402        -0.09733453695165493     3.2464103040786627       0.22876804913813942      -17.48627527102679       17.786549343165404
-7.62                     -7.62                    64.41375907386625        -0.06768271743094187     2.73773646540155         -0.27542111143182524     -21.77307526912053       21.94624943851226
-7.62                     -7.62                    63.66970861739729        -0.08309839661359217     3.0039672332902          -0.055804400951011246    -19.69147513896749       19.91936561285076
-7.62                     -7.62                    63.35848766079827        -0.08908600837343757     3.093834711588271        0.1697052409179136       -18.635216898258143      18.89105401867639
-7.62                     -7.62                    63.35851458766528        -0.08908550658451839     3.1131194366019423       0.05359681056718202      -18.740141954550968      18.99703412960489
-7.62                     -7.62                    63.435712360123254       -0.08763064090405165     3.097511645215162        0.05971492900563646      -19.052638038663176      19.30287959080988
-7.62                     -7.62                    63.52223425141845        -0.08597153485194821     3.0639122882098606       -0.007794234786992149    -19.273103135854214      19.515125511900067
-7.62                     -7.62                    60.6769371467939         -0.12972432201598527     3.775081475009845        0.4250139747981727       -11.574639263089246      12.182124243841196
-7.62                     -7.62                    60.676860606894614       -0.12972520793431713     3.775017988172131        0.4250693928994842       -11.574550639052031      12.182022299100543
-7.62                     -7.62                    54.900000000000006       -0.17235502352381113     3.22255377928839         0.6943068856351657       -3.8516907976434154      5.069757086143009
-7.62                     -7.62                    57.24829634714443        -0.16075110167623408     3.4370061800425376       0.541248586116837        -6.031152023014696       6.962812379946651
-7.62                     -7.62                    60.42881672834071        -0.132721717648685       4.1269969134532865       0.9736502190982397       -11.187197209845216      11.963840507327554
-7.62                     -7.62                    60.67637631050749        -0.12973122518248256     3.9011664488093523       1.0277076585706688       -12.424049119042305      13.062629107694073
-7.62                     -7.62                    57.57037794947985        -0.15855130489030556     3.7295188670664317       1.5437837279331177       -7.681360425689341       8.677319699525995
-7.62                     -7.62                    57.77982545721868        -0.1570761821466228      4.429662257199084        0.8822581530296874       -7.200530045761733       8.499877652140583
-7.62                     -7.62                    57.4251027001966         -0.1596506353246638      3.3997572352161924       0.531013863538613        -6.356009926056392       7.227668169043349
-7.62                     -7.62                    71.7748498434087         0.1429813965479647       -1.1301918056120286      -2.8456320920593825      -29.16466023234511       29.324944364635428
-7.62                     -7.62                    72.08515223306514        0.15193331194639448      -1.2974132164806331      -2.92391039191709        -28.533351106471898      28.712099512217154
-7.62                     -7.62                    72.31878624926942        0.1585436114866519       -1.4221039209528215      -2.982169731360358       -28.060359343165658      28.2541940663013
-7.62                     -7.62                    72.38103763609247        0.16028584934374526      -1.4472567155179092      -2.999354226882076       -27.925591137641447      28.12346561442323
-7.62                     -7.62                    72.4285184452178         0.1616095502658621       -1.4754253326510423      -3.0162111339919875      -27.831711507408656      28.03352591003617
-7.62                     -7.62                    72.52236760110782        0.1642096729291144       -1.5165101052598935      -3.046425521174072       -27.592550659435133      27.801607206219398
-7.62                     -7.62                    72.59728761496987        0.1662702914077073       -1.5554017205286073      -3.070343080511975       -27.41663510105755       27.63183239325275
-7.62                     -7.62                    72.67781989530482        0.16847063153235398      -1.5770868366146686      -3.0625825591683835      -27.273080909061466      27.48977186326141
-7.62                     -7.62                    73.67060881857395        0.19430766238942082      -2.134865972373076       -3.340264172762941       -24.776312978188656      25.09144679481436
-7.62                     -7.62                    73.84370684774521        0.1985429569095827       -2.165300261038567       -3.325764676182331       -24.231418669063004      24.55424375983123
-7.62                     -7.62                    73.92741188425823        0.2005591043620094       -2.2352975673619397      -3.344865353231242       -23.97240589639034       24.307630980973677
-7.62                     -7.62                    73.9557206187765         0.20123664210059242      -2.2491027587623016      -3.354215103872722       -23.895345885021896      24.23420675713057
-7.62                     -7.62                    75.20467705576695        0.2289626126094914       -2.693764347361448       -3.765058174715705       -20.696070806638176      21.20753112107796
-7.62                     -7.62                    75.29132057930687        0.23074460490378387      -2.545716142982414       -3.6567695912212983      -20.24958598817976       20.733990624494073
-7.62                     -7.62                    75.44515251434956        0.2338255974991772       -3.0829160482811773      -3.5879347119221467      -19.348679472610215      19.9185602941471
-7.62                     -7.62                    75.55374112920971        0.23591040516070688      -3.2277223225044054      -3.5526366389353967      -19.22967861029174       19.819686120991197
-7.62                     -7.62                    75.32664062564001        0.23145802671610624      -2.5768173062733766      -3.6526492237198624      -20.147972134672372      20.6378926957426
-7.62                     -7.62                    76.46519038124794        0.2524630394211451       -3.4902056654858313      -3.4079091298194157      -17.091892170357063      17.774368010919797
-7.62                     -7.62                    76.58902504795822        0.2545548551989657       -3.076985246469576       -3.7029612062971893      -16.74282247830098       17.4213049006736
-7.62                     -7.62                    78.55894965777122        0.28286203330341797      -3.9277896257589973      -3.714770349365473       -12.635207100456679      13.743198629292081
-7.62                     -7.62                    78.90883195914543        0.28711929213066467      -3.328253216039201       -2.1227703880514746      -10.06951075626688       10.815658577314554
-7.62                     -7.62                    79.02516197588356        0.2882760739990644       -3.282006851236453       -2.150481374546402       -10.339766968169542      11.059245908735548
-7.62                     -7.62                    79.31724449168323        0.29121193992669675      -2.8664884477180053      -2.622364663136551       -10.252878966232757      10.96426374835931
-7.62                     -7.62                    79.7374961094048         0.2954136229885509       -2.6578943805905624      -2.471200989247734       -9.743156193056237       10.397130828739435
-7.62                     -7.62                    81.28594609384302        0.30904633066444365      -6.413491801627757       -5.928521750940256       -7.2521406817838905      11.352259321795952
-7.62                     -7.62                    82.52641476786587        0.3169140015189844       -7.121719210185809       -6.410512588323506       -6.6455132756593045      11.660892026373787
-7.62                     -7.62                    82.66861989981183        0.317851723130734        -7.166656922609505       -6.475344819651003       -6.542781674285433       11.666149922623706
-7.62                     -7.62                    84.9                     0.32626808324858086      -4.067660675777873       -4.695588992076736       -2.4931710335923554      6.694051176867854
-7.62                     -7.62                    67.19339403343808        0.0032701154831680504    1.4410308397955358       -1.2541795122967168      -28.86705770702761       28.930201464752518
-7.62                     -7.62                    67.40000000000003        0.009272888526028544     1.3348956527546285       -1.3316498414603615      -29.238050765396274      29.298785815523043
-7.62                     -7.62                    70.40000000000003        0.10151522646922001      -0.37321478992481616     -2.4304968483175458      -30.94176110756087       31.03931675547106
-7.62                     -7.62                    70.63336122937169        0.10871374930631261      -0.5029207164231089      -2.503469478183554       -30.755874811993863      30.861693474698413
-7.62                     -7.62                    67.76006792026179        0.019914881235626854     1.136839634091018        -1.4714498913612957      -29.848966707692888      29.906828361653226
-7.62                     -7.62                    67.73373003859115        0.01912925986827963      1.1509590348420318       -1.461470670139672       -29.808174832504434      29.866166310136187
-7.62                     -7.62                    67.70475583464084        0.01826624549455261      1.166406904549433        -1.4507167024769911      -29.763108087560106      29.821262331591733
-7.62                     -7.62                    67.62747432888887        0.01597090736170804      1.2078155792317489       -1.4218460477907229      -29.638271325263105      29.696928996227307
-7.62                     -7.62                    67.61623412890644        0.015637878529571825     1.2138616530032778       -1.4173555895918568      -29.619033649950786      29.677761225147968
-7.62                     -7.62                    67.60446184867938        0.015289310109277306     1.220318633899037        -1.4130284374922972      -29.599471783380068      29.65829659283412
-7.62                     -7.62                    67.55462110669156        0.013816084976158844     1.2484706297980042       -1.3938131774564817      -29.52675364850339       29.585986126991404
-7.62                     -7.62                    70.06794925726679        0.09120396418833092      -0.18012326114726207     -2.316241147156205       -31.150417484501432      31.236932098074522
-7.62                     -7.62                    70.09348488106002        0.09199915626436904      -0.19148679069166974     -2.322647507462989       -31.134431488653377      31.22153395905756
-7.62                     -7.62                    70.12224306825398        0.09289432726113438      -0.20769678688502324     -2.333424128201841       -31.119774744755006      31.207825721790496
-7.62                     -7.62                    70.15852487959368        0.09402305460807085      -0.2287540909035357      -2.346836227833137       -31.100236068255313      31.18949586344069
-7.62                     -7.62                    68.26044206983931        0.03502727305171124      0.8603945952114458       -1.6636989408853253      -30.521569796753653      30.578986181420024
-7.62                     -7.62                    68.31763702190777        0.0367748515187332       0.8247277647260489       -1.6850344988521826      -30.58379595685429       30.64128085245016
-7.62                     -7.62                    68.032907015528          0.028113651745923292     0.986123777398987        -1.5764180592875476      -30.241762891525504      30.29887385348255
-7.62                     -7.62                    68.06567877643941        0.029105402635058834     0.9660969670980677       -1.5889313503046765      -30.282706837662246      30.33974916840304
-7.62                     -7.62                    68.34831486097069        0.03771360942268646      0.8106632307068082       -1.6965500654090313      -30.624873690281845      30.682541380136303
-7.62                     -7.62                    68.10100614157436        0.030176019213012308     0.9467804052940778       -1.6018010959840865      -30.328469448133838      30.38549356112769
-7.62                     -7.62                    68.22317580918836        0.03389067162632562      0.880908878521911        -1.6505898325570456      -30.47738236704727       30.53475533215885
-7.62                     -7.62                    68.509337662287          0.04265730766806394      0.7186793080850968       -1.7536682098588194      -30.779701739430475      30.837994281509918
-7.62                     -7.62                    68.56898662416722        0.04449502363479427      0.6862016872410379       -1.7790099316237757      -30.834040818382476      30.892941301890716
-7.62                     -7.62                    68.43303079541211        0.04031145050125997      0.7630157688457668       -1.725841670084212       -30.705762528337694      30.763689229030604
-7.62                     -7.62                    68.6258453801699         0.04624968598209841      0.652368945513178        -1.799627169777125       -30.885999177632435      30.94526116212273
-7.62                     -7.62                    68.90000000000049        0.05474492134948819      0.4920475011128502       -1.89678954718147        -31.083686832691         31.14539305326642
-7.62                     -7.62                    69.14254294082654        0.06229787883543143      0.3553110817106029       -1.9903420498462765      -31.203367762060147      31.268800218981013
-7.62                     -7.62                    69.14720361730892        0.062443272372788745     0.3536130141721152       -1.9909980004388643      -31.196548877321973      31.262018121942837
-7.62                     -7.62                    69.40000000000026        0.07033902218989167      0.2105236510813313       -2.0831485638964935      -31.260732916503613      31.33077162509569
-7.62                     -7.62                    69.62137942927617        0.0772610379160982       0.07919893282891621      -2.1608173420690733      -31.27290024576081       31.34756280539293
-7.62                     -7.62                    69.6628382302228         0.07855731054644279      0.055310919527492786     -2.1763651130613084      -31.263547100960437      31.339256560058043
-7.62                     -7.62                    69.68285503000416        0.07918308246723185      0.044146580487414155     -2.183301091508099       -31.260959200963228      31.337139670701227
-7.62                     -7.62                    69.77186970622762        0.08196522161812445      -0.006319699290600056    -2.2147241783850404      -31.248713786185192      31.327099393589616
-7.62                     -7.62                    69.77253300027554        0.08198594941071397      -0.008032487349737494    -2.2128766585141193      -31.24974560149127       31.327998464386017
-7.62                     -7.62                    69.77257938251199        0.08198739863648018      -0.00658279306020404     -2.2140328303556203      -31.245270151851287      31.32361555710365
