% Model:              ElectrodesShort.mph
% Version:            COMSOL 5.5.0.292
% Date:               Mar 13 2026, 15:13
% Dimension:          3
% Nodes:              117
% Expressions:        5
% Description:        Electric potential, Electric field, x component, Electric field, y component, Electric field, z component, Electric field norm
% Length unit:        mm
% x                       y                        z                        V (V) @ SL=0.185         es.Ex (V/m) @ SL=0.185   es.Ey (V/m) @ SL=0.185   es.Ez (V/m) @ SL=0.185   es.normE (V/m) @ SL=0.185
-7.62                     -7.62                    73.40000000000003        -0.01435604048796306     0.05925151949682217      -0.6503190311567195      -26.542652622811847      26.550684244292235
-7.62                     -7.62                    73.65000000000003        -0.0076407882010078145   -0.03306307995511304     -0.7396410293327429      -27.119824974157485      27.12992938893252
-7.62                     -7.62                    78.15000000000003        0.12719253051661317      -1.6455981130260398      -2.136428581912469       -29.908938950984293      30.030267221736686
-7.62                     -7.62                    78.40000000000003        0.1346221466496579       -1.723801720873008       -2.2143668347193852      -29.56595644509798       29.69883319871373
-7.62                     -7.62                    73.90000000000003        -7.808544747583659E-4    -0.1324896144115384      -0.8015189032107448      -27.699954511728137      27.711865076207683
-7.62                     -7.62                    77.90000000000003        0.11968012158175106      -1.5878819337869885      -2.06263444826763        -30.196600283526777      30.308587868554962
-7.62                     -7.62                    72.9101716559189         -0.02706023096161962     0.23105622845820228      -0.5298857333499019      -25.31825116269446       25.324849610775505
-7.62                     -7.62                    72.4566446289296         -0.03825582572902796     0.3998188650150496       -0.42221661424217416     -24.052758472367497      24.05978620279512
-7.62                     -7.62                    72.3520709289972         -0.040756032008057115    0.4310901365673274       -0.4016509643114681      -23.764355785723225      23.771658926406776
-7.62                     -7.62                    72.34481325881285        -0.04092843323027138     0.43326043918945345      -0.4002236579770866      -23.744339934880305      23.75166462645772
-7.62                     -7.62                    72.23675026861528        -0.0434782080649385      0.47054735702133854      -0.3793521656841783      -23.446162006243224      23.453951387853866
-7.62                     -7.62                    54.900000000000006       -0.1809719082031296      3.0113855599043156       0.8372776107245623       -1.2647003385493836      3.3717864306844505
-7.62                     -7.62                    58.97462292679877        -0.17333946512868995     2.579824345119035        1.7612242506033624       -2.6281002644895413      4.082194938117511
-7.62                     -7.62                    72.22564965889511        -0.0437384320773663      0.4707657476277234       -0.3764852107068464      -23.426009976637573      23.43376420741114
-7.62                     -7.62                    72.14807810693719        -0.045546784400063836    0.4969310330727481       -0.3626645144135807      -23.198100977806348      23.206256806692146
-7.62                     -7.62                    70.39405729710339        -0.08183747261739595     1.0698884888757902       0.01555163715044472      -18.216098360860236      18.247496889288186
-7.62                     -7.62                    70.56756966127165        -0.0786323820699975      1.0784101692005876       0.01136980460154291      -18.660883064741423      18.692021145971484
-7.62                     -7.62                    69.7109123313889         -0.09366242234102626     1.2168179180011243       0.353335888223558        -16.44553814535874       16.494278310551348
-7.62                     -7.62                    70.38892366203686        -0.08193103356368531     1.0813411855819517       0.020900112579848695     -18.218155222375145      18.25023055418469
-7.62                     -7.62                    71.10853843049136        -0.0681154194650275      0.8531036021652199       -0.11035211727802263     -20.19989140128766       20.218199127756904
-7.62                     -7.62                    71.0781322048081         -0.06872893282947148     0.8901567650344475       -0.11744151078210052     -20.133381676768643      20.153392501443392
-7.62                     -7.62                    68.62969978131729        -0.10983759978107337     1.5793096485572544       0.43468683757304305      -13.46263135836407       13.561917810693034
-7.62                     -7.62                    69.39600340480648        -0.09871821556261355     1.3553679009675692       0.4826829034041151       -15.664019855780046      15.729956229261523
-7.62                     -7.62                    68.55792829898911        -0.11079678951049064     1.6454222328623374       0.41493926601050646      -13.142645169097204      13.251743695064023
-7.62                     -7.62                    67.08942596464807        -0.12807119970155492     1.6669603736337066       0.7132234389157226       -10.278216384759773      10.436914132684434
-7.62                     -7.62                    67.53181625314484        -0.12331895973841486     1.746814508156083        0.6676986671030107       -11.264377979375624      11.418554799018928
-7.62                     -7.62                    64.06591337902412        -0.15205163944833455     2.4951789412058396       0.9406943563325569       -5.800687604839322       6.384261939301172
-7.62                     -7.62                    67.55616318251175        -0.12304416419685638     1.7444087371928418       0.6617013539341556       -11.30894430016442       11.461807523615738
-7.62                     -7.62                    63.052835652024186       -0.1579430007486774      3.7443400058970333       0.6782144518831732       -7.807997171879556       8.685901033202217
-7.62                     -7.62                    64.03230163262307        -0.15224894054809093     2.9749273924734325       0.945248051554211        -5.416859265154496       6.251883809536603
-7.62                     -7.62                    63.24107879162169        -0.15650593804321897     2.3114477368876614       0.6109409028258805       -5.081975707583545       5.6162724755462206
-7.62                     -7.62                    63.95313084428028        -0.15267690058715566     2.054339450109461        0.0015918167644400905    -5.672961215263182       6.033473465594837
-7.62                     -7.62                    78.85109446436522        0.14777222265454787      -1.897058512693031       -2.3803168027114943      -28.80053174550642       28.960928298412238
-7.62                     -7.62                    79.1442284856114         0.1561251493759664       -1.9814900762273826      -2.484313645574228       -28.18996486016482       28.368507821686734
-7.62                     -7.62                    79.24820531818146        0.15904473732233698      -2.000596058709988       -2.50413373454424        -27.998213520757446      28.18107575491989
-7.62                     -7.62                    79.2682430547417         0.15960534832618725      -2.0090117454040524      -2.5348648311786945      -27.938652729514445      28.125255274324587
-7.62                     -7.62                    79.37505982321952        0.16257855733077708      -2.0301668763732295      -2.568052679720772       -27.72293570988026       27.91554471053535
-7.62                     -7.62                    79.64277986835602        0.16991444136656297      -2.0950925579486466      -2.6395816156738334      -27.08566863342765       27.294509507445298
-7.62                     -7.62                    79.78814971494273        0.17382703082887793      -2.1360199151987587      -2.6640689286477652      -26.74199650913819       26.959121306701952
-7.62                     -7.62                    80.1779211462785         0.18407605431738341      -2.287726955097014       -2.788377836755977       -25.866828348880603      26.117074001733858
-7.62                     -7.62                    79.71487269937381        0.1718611164873402       -2.114728561637641       -2.652687859973099       -26.91505614985587       27.128012778708083
-7.62                     -7.62                    80.24304143720984        0.18575469251767218      -2.3090766070505993      -2.8108423187887013      -25.68816860464375       25.9444536573605
-7.62                     -7.62                    80.7082476773937         0.1974012797274789       -2.484422913298829       -2.9318206424854267      -24.37000245524341       24.671135951966168
-7.62                     -7.62                    80.81825047957497        0.20006569127103757      -2.5070894184117094      -2.9696941800387613      -24.072609745998292      24.384321209703582
-7.62                     -7.62                    81.32290401200943        0.21186976147457198      -2.611075241012265       -3.1434444312422993      -22.708278308391332      23.07303318893924
-7.62                     -7.62                    81.4996976289949         0.2158405677214106       -2.667235112201869       -3.1901981677217783      -22.201101468425115      22.58717365905716
-7.62                     -7.62                    83.45625256931689        0.25384892459655806      -3.2286183153267984      -3.909680712223377       -16.301456262371346      17.07182051720323
-7.62                     -7.62                    83.52107798149353        0.2549002829219302       -3.2025230620418768      -3.930405679663778       -16.135154321987642      16.91293728966083
-7.62                     -7.62                    82.3972473948513         0.2346234157012935       -2.8502818783492145      -3.394671617980803       -19.656262846504745      20.149852884595788
-7.62                     -7.62                    82.82328444328525        0.24274289302453256      -2.931318574235121       -3.4034401169679285      -18.479563742768818      19.017631538561748
-7.62                     -7.62                    83.56615483903788        0.2556178450264651       -2.9394195883514556      -3.9992861931362995      -15.858444835567902      16.617001840697533
-7.62                     -7.62                    83.65796369665742        0.2570625355867766       -3.0615247728799346      -4.002334608457366       -16.04971302258147       16.82215516395668
-7.62                     -7.62                    83.12863572347705        0.24824812649033567      -2.9441287654227324      -3.5509982849264503      -17.57879803875005       18.17392702456194
-7.62                     -7.62                    82.30618855037606        0.2328221090044684       -2.8456568214700084      -3.387589362691166       -19.91106826059221       20.39667040753857
-7.62                     -7.62                    83.85246207773534        0.26013992987848655      -3.124266823387238       -4.054018148286418       -15.594707611204143      16.413135343660038
-7.62                     -7.62                    83.90653492866466        0.2609606964193967       -2.710466535516339       -3.842878593878879       -15.105411666807088      15.82048691890228
-7.62                     -7.62                    83.9421503853307         0.2614969585753421       -2.7198728114189095      -3.845575102953937       -15.008600963918713      15.730361053608933
-7.62                     -7.62                    84.9                     0.2746371223956088       -2.5731166455919645      -3.843730174524884       -12.781035242364952      13.592279161088124
-7.62                     -7.62                    74.19633291212664        0.007527569363360538     -0.2531826396071305      -0.8731990997987761      -28.362939609102284      28.377507314534714
-7.62                     -7.62                    74.40000000000003        0.013342099490709483     -0.32896408327218296     -0.9242126237845856      -28.744165464461354      28.760901143573
-7.62                     -7.62                    77.40000000000003        0.10445465304186338      -1.422553524087192       -1.8975668726086212      -30.657252639379863      30.74884644925201
-7.62                     -7.62                    77.63336122937163        0.11158967257074345      -1.4971095411160036      -1.9744246547966782      -30.48594280378819       30.586474107543264
-7.62                     -7.62                    74.70162415240432        0.022095011676563        -0.4414355391462941      -1.020003779728654       -29.28320932132071       29.304293562585094
-7.62                     -7.62                    74.73794594043719        0.023159704773139722     -0.45498478698413436     -1.0303927067243137      -29.342379023247297      29.363990311780867
-7.62                     -7.62                    74.76441438918583        0.023936922664450102     -0.46425398330104883     -1.0374164210841599      -29.384730856907737      29.406702843478588
-7.62                     -7.62                    74.7704309229735         0.024113746517294272     -0.46500671091847323     -1.0409732511060028      -29.399081675242698      29.42118046405189
-7.62                     -7.62                    74.90000000000003        0.02793591534766047      -0.5159703235474442      -1.0803355121182676      -29.59687590824859       29.62108056303469
-7.62                     -7.62                    74.62849839585031        0.019958157648319225     -0.41390948809379324     -0.9984325336511661      -29.159264963905716      29.179289261800854
-7.62                     -7.62                    76.90000000000003        0.08905077986533598      -1.244415603948255       -1.7276390241752324      -30.914529460025904      30.9877627222104
-7.62                     -7.62                    77.05549232159431        0.09385358017333179      -1.2976475532556009      -1.777690765830748       -30.861443650503265      30.939825109793016
-7.62                     -7.62                    77.0679713455772         0.09423863006567702      -1.3019059271182307      -1.7804685245822789      -30.853086262204013      30.9318276070635
-7.62                     -7.62                    77.09220262485942        0.09498611354777281      -1.3106200391371772      -1.7892243674231167      -30.843016344899524      30.92265683888931
-7.62                     -7.62                    77.11415903542796        0.09566321652541099      -1.317463372094906       -1.796381429635801       -30.841350704007716      30.921701266669487
-7.62                     -7.62                    75.28421944050498        0.039414125152377015     -0.6580209733659468      -1.197435277885475       -30.130245563603694      30.161209202702302
-7.62                     -7.62                    75.32735445117316        0.040714861138282224     -0.6743018393352525      -1.211415505188608       -30.179742344420106      30.21157159884812
-7.62                     -7.62                    75.37069602931834        0.0420239765704952       -0.6893033237287796      -1.2251047851141124      -30.230203821828255      30.262869062861384
-7.62                     -7.62                    75.28138188258998        0.03932863902433628      -0.6577793659965208      -1.19609286600911        -30.124869625974057      30.155780238958883
-7.62                     -7.62                    75.21005199670464        0.0371830366261696       -0.6311248368255388      -1.1750667737138123      -30.036548987323346      30.066149995471974
-7.62                     -7.62                    75.13378534183475        0.03489607952127128      -0.6021753251210251      -1.1508921389576017      -29.93611164136192       29.964277866182318
-7.62                     -7.62                    75.47329788737304        0.04513134667413535      -0.7274208749519318      -1.2573332693981794      -30.34941842382588       30.384160787227827
-7.62                     -7.62                    75.57100174424693        0.0481009743462906       -0.7680209049873099      -1.2847008709616716      -30.437721344285734      30.47450070256664
-7.62                     -7.62                    75.37738452400606        0.0422261810073707       -0.6930140536455038      -1.2299496517572237      -30.234243817793264      30.267185925655163
-7.62                     -7.62                    75.38688961544193        0.04251361228744445      -0.6964979633506054      -1.2326437475424825      -30.24519123299841       30.278310929474763
-7.62                     -7.62                    75.58166082967412        0.04842546587331469      -0.7716228062959232      -1.2880688258292636      -30.44771375998411       30.484714141110047
-7.62                     -7.62                    75.70005764909475        0.05203694887450707      -0.8136380252320361      -1.330961631099072       -30.55354701966428       30.59334406668217
-7.62                     -7.62                    75.37271844149438        0.04208511697955641      -0.6919152480762278      -1.2282869530733649      -30.229154338686413      30.26200931170523
-7.62                     -7.62                    75.04155037895369        0.032140738551059214     -0.5670085847803676      -1.1232267599084906      -29.810759468805898      29.83730076927854
-7.62                     -7.62                    75.05775304213898        0.032623929582660416     -0.5731900838218564      -1.1282845193925546      -29.83264928143852       29.85947983435423
-7.62                     -7.62                    75.03112154191763        0.03182991404987206      -0.5641394074342259      -1.1195238525345133      -29.79738834781375       29.823747907964897
-7.62                     -7.62                    75.72207569436769        0.05270989626652897      -0.819633467084941       -1.3410343144148698      -30.57821268084526       30.618577086595806
-7.62                     -7.62                    76.03035696562378        0.06217051371208393      -0.9328705259773038      -1.4394668524841592      -30.791962333805685      30.839702602394627
-7.62                     -7.62                    76.05958341718906        0.06307074662102911      -0.9449838127906105      -1.4436864882391092      -30.802160565592864      30.8504508976988
-7.62                     -7.62                    76.0772119604591         0.06361383153502526      -0.9516613913715304      -1.4503840633772143      -30.812109618515173      30.860903623817
-7.62                     -7.62                    76.09263715379758        0.0640891814254092       -0.9575043551978695      -1.45624452443883        -30.820815162842415      30.870051992299558
-7.62                     -7.62                    75.86552516382616        0.05710398320923425      -0.8755547284317444      -1.3801519486589484      -30.683195343236207      30.726696730287465
-7.62                     -7.62                    75.84133835104282        0.056362047519466385     -0.8666913367207627      -1.3698072605812115      -30.666927859913926      30.709737709225926
-7.62                     -7.62                    75.79215271865488        0.05485444363584377      -0.8508313310591831      -1.3554124935542404      -30.635684729535342      30.67745484601159
-7.62                     -7.62                    75.83507396714134        0.056169950573858894     -0.8646713735868019      -1.3679739132714985      -30.662948670189678      30.705625386277003
-7.62                     -7.62                    76.10581886638344        0.06449543152677654      -0.9518189115951259      -1.4593638727395728      -30.82921409012505       30.878409019382662
-7.62                     -7.62                    76.25381696832778        0.06906243588462165      -1.0124043436788241      -1.5095084590935244      -30.888320574966315      30.941750536856542
-7.62                     -7.62                    76.28096455496869        0.0699011373578622       -1.0223847672465922      -1.5171849340612766      -30.899592788125858      30.953706647321575
-7.62                     -7.62                    76.15665287382896        0.06606309283098218      -0.9713846524408041      -1.4779407113377374      -30.8484455311754        30.89910174388768
-7.62                     -7.62                    76.18170462489226        0.06683601912358936      -0.981788148523421       -1.484051219349567       -30.85953254459963       30.910792045197383
-7.62                     -7.62                    76.28253277596671        0.0699495949974551       -1.0229390954713722      -1.5176312238399419      -30.89991079502113       30.954064289926144
-7.62                     -7.62                    76.28989410933413        0.07017706503613906      -1.0255411489218886      -1.5197261376589495      -30.90140354047753       30.95574329511493
-7.62                     -7.62                    76.35290531529125        0.07212462234756278      -1.0491766087168557      -1.5384606438591533      -30.915536285952285      30.9715678737292
-7.62                     -7.62                    76.37982177382546        0.07295684447983447      -1.0597257144886925      -1.546820532607228       -30.92188049119602       30.978675979806706
-7.62                     -7.62                    76.46881446939366        0.07570964036167215      -1.0927613049518516      -1.5784638893701946      -30.94195202024343       31.001452713424452
-7.62                     -7.62                    76.50360632936417        0.07678614251245348      -1.1025684584843702      -1.5921102800311502      -30.94328922728397       31.003832352674944
-7.62                     -7.62                    76.54047497465803        0.07792706100787564      -1.1165630085814655      -1.605457138914943       -30.94687234743867       31.00859741532483
-7.62                     -7.62                    76.58980902031371        0.07945391387553505      -1.1333640235847753      -1.6208439294079255      -30.951674482297804      31.01479973031552
-7.62                     -7.62                    76.60889382684778        0.08004460290367665      -1.1399256864728926      -1.626590387804157       -30.950777417578507      31.014445821469472
-7.62                     -7.62                    76.63252885641393        0.08077612631869797      -1.148344731634026       -1.6338391405984112      -30.950851516193126      31.0152113572914
-7.62                     -7.62                    76.6368108169417         0.08090865478636994      -1.1497833356227467      -1.6352031727292058      -30.95028183219148       31.01476804083921
-7.62                     -7.62                    76.72823825881397        0.08373815662889442      -1.1818716005374768      -1.6674449901963158      -30.944065131357434      31.011487551054024
-7.62                     -7.62                    76.75110347719865        0.08444566902281264      -1.1900654069855818      -1.674710225243274       -30.941404931964314      31.009538035501652
-7.62                     -7.62                    76.76114217261097        0.08475627450031653      -1.1933332573460191      -1.6784179810655075      -30.943344779023164      31.01179964619519
