% Model:              ElectrodesShort.mph
% Version:            COMSOL 5.5.0.292
% Date:               Mar 23 2026, 09:43
% Dimension:          3
% Nodes:              84
% Expressions:        5
% Description:        Electric potential, Electric field, x component, Electric field, y component, Electric field, z component, Electric field norm
% Length unit:        mm
% x                       y                        z                        V (V) @ W=0.014          es.Ex (V/m) @ W=0.014    es.Ey (V/m) @ W=0.014    es.Ez (V/m) @ W=0.014    es.normE (V/m) @ W=0.014
0                         0                        69                       0.19166877967380308      -0.10491076242124109     -0.06787295571280083     -38.9928376833239        38.99303788632316
0                         0                        69.25                    0.20133531749579042      -0.12292384112782884     -0.09341005215640052     -38.29716984020381       38.297481033065054
0                         0                        64.25                    -0.001048133485410588    0.2801453030135449       0.11748297239620369      -37.26300495471185       37.26424320839595
0                         0                        64.5                     0.008374807353793642     0.2223429302223181       0.1142228836304966       -38.01703168873688       38.01785345950227
0                         0                        68.75                    0.1818406215390584       -0.10133278941071922     -0.05091834902697201     -39.596988390982354      39.597150789521066
0                         0                        64.75                    0.01797916594062339      0.20883115677162584      0.10514944673111545      -38.743279300796345      38.7439847955486
0                         0                        69.75636298763506        0.22034280215992602      -0.15993140597331035     -0.10515181279848118     -36.79948329222593       36.79998105343489
0                         0                        70.00474194322553        0.22936761470082276      -0.15909892604270226     -0.11124527947850993     -35.90953593918147       35.91006069819208
0                         0                        70.31928258148014        0.2404859443893105       -0.1937099705736074      -0.12652497761689574     -34.78583872947103       34.78660817377037
0                         0                        69.98624654876872        0.22870286850091354      -0.17246397048559547     -0.11478828876273894     -35.98299736465475       35.98359375489201
0                         0                        69.98108037635348        0.22851692960515868      -0.17217057676794045     -0.11433022623644717     -36.00023540818506       36.00082865091966
0                         0                        70.39865999854669        0.2432319944210438       -0.18227833919226555     -0.10680901638200879     -34.46775324845095       34.46840071072373
0                         0                        71.26635680972868        0.2717294390685346       -0.1577096664455695      -0.14299002448123588     -31.163211510011152      31.16393861667172
0                         0                        71.40228351172578        0.275929738736546        -0.14450605557834706     -0.16856035075350917     -30.591778824727967      30.592584497767092
0                         0                        71.49305432379907        0.2786895332098229       -0.14036849565289344     -0.16191746375949378     -30.216192597818377      30.216952455336994
0                         0                        71.52582133510947        0.2796774062350111       -0.1277425102288845      -0.16895359443680036     -30.08849534319046       30.08924085920392
0                         0                        70.46735631795454        0.24559117125042879      -0.17503484003297842     -0.11265209114083774     -34.21647466131907       34.217107796211444
0                         0                        70.5629270247433         0.24884455910486408      -0.1748980921018699      -0.10538573756681302     -33.92648187616605       33.927096368391545
0                         0                        70.83220258575176        0.2578357670400223       -0.18188987349870445     -0.1568849732865516      -32.84652405547324       32.847402322675485
0                         0                        71.11983101349065        0.2671223754193257       -0.15654641627287447     -0.15844880532230832     -31.72712363510935       31.72790549282871
0                         0                        71.65123820670641        0.28341994206487264      -0.11752794186553928     -0.17233260977340592     -29.593041633575666      29.59377678621053
0                         0                        71.99332396610063        0.29331626693319646      -0.14135990157667067     -0.15038639166051837     -28.261819476190105      28.262573109915678
0                         0                        72.00000000000001        0.2935048568249672       -0.14177492999854735     -0.14991812499503965     -28.235764153078108      28.23651807293578
0                         0                        63.56481903362121        -0.02579663906251661     0.2999265117440304       0.1298944904169347       -34.98373722660592       34.985264024033036
0                         0                        63.26042517374425        -0.03625323881676578     0.3412674390510979       0.14132994875442684      -33.763521474243795      33.76554190237576
0                         0                        63.31873890462751        -0.03427783255132441     0.33669590882051637      0.13908298909106165      -33.98863017691473       33.99058236506033
0                         0                        63.02347592841223        -0.04414567456409608     0.3858098841454023       0.16502789652611227      -32.84295436951384       32.845634948822415
0                         0                        62.82035630107775        -0.050737555080527214    0.4034304352549043       0.1652575292381826       -32.06343210761557       32.06639587928043
0                         0                        62.61261231784328        -0.05731586126585452     0.43846703712034696      0.1683282106561137       -31.244043996817872      31.24757387389035
0                         0                        62                       -0.07569350127773063     0.32734442575597456      0.29456567718931836      -28.811497541504977      28.81486272560393
0                         0                        62.04877323357397        -0.07428347087128039     0.3222709693296011       0.2964956937558725       -29.008347612367384      29.01165282216835
0                         0                        62.23242120484773        -0.06889822087217119     0.4331434863856849       0.1559342615825905       -29.695337365142237      29.698905535446023
0                         0                        68.25                    0.1617578513223068       -0.08481994395900312     -0.020373668137513984    -40.656153458780864      40.65624704240648
0                         0                        68.48544107570018        0.17127973302291113      -0.10260899082683039     -0.037599746196534056    -40.22725163870973       40.22740007445158
0                         0                        65.03249789673897        0.029036455133290423     0.1980589505915944       0.10416615010702657      -39.51841706258268       39.51905065999136
0                         0                        65.25                    0.03768461146081685      0.1742936034243078       0.09008655213201441      -40.00011750840598       40.00059867718677
0                         0                        67.75                    0.14122743624566383      -0.05076142471557432     0.0032904953823098826    -41.399168054894574      41.3991993061098
0                         0                        67.85585985991392        0.14560370140438259      -0.058278917623511006    -0.005053682217749156    -41.2776559709647        41.27769742160118
0                         0                        67.87968817037817        0.14658689046791581      -0.05946288749294126     -0.006654248612164793    -41.24434805879491       41.244391460040156
0                         0                        67.9271036004979         0.1485409371010544       -0.06406675957941843     -0.009460490736159954    -41.17907604407381       41.17912696857695
0                         0                        67.99801785102783        0.1514574934425499       -0.07048409102845898     -0.012592523951232337    -41.077456171356715      41.077518572675245
0                         0                        68.02238403632089        0.15245797495640373      -0.06816099514267648     -0.012619233326205404    -41.05085819604429       41.050916722992255
0                         0                        67.96402479847448        0.15006032905700448      -0.06801962986119747     -0.011903978759612244    -41.125481229041924      41.12553920248386
0                         0                        65.5900065516046         0.051407517162519054     0.14607742307144633      0.09084188685383765      -40.68725902083136       40.687622657144296
0                         0                        65.75                    0.05793956259235384      0.12438103264632289      0.08108689149281645      -40.953054560684734      40.953323718297575
0                         0                        65.5791845139682         0.05096730385662882      0.14673044736689178      0.09075506590069438      -40.66858009818063       40.668946058489205
0                         0                        65.53122125310787        0.049018735714791775     0.15100161538037682      0.09104901886553307      -40.58394972923586       40.58433277801703
0                         0                        65.52862418286888        0.04891334229728937      0.15028558747433962      0.09140999954767626      -40.588921879666174      40.589303035399155
0                         0                        67.09907059384635        0.1140931291648052       0.002570360492566648     0.03329953305684796      -41.86019172481187       41.86020504851431
0                         0                        67.14100454131878        0.11584822172154105      -0.005182270142773504    0.029459476029359166     -41.85704939761342       41.8570600853775
0                         0                        66.82849431359998        0.1027590578927696       0.028660580466631558     0.027370036107697615     -41.89771993976934       41.89773868240498
0                         0                        67.03790780024401        0.1115315660886285       3.387929131051237E-4     0.031719638488539204     -41.88397279113162       41.88398480348426
0                         0                        67.09468782017824        0.11390963307831392      -0.007340328845857336    0.03289898234908151      -41.88024541241206       41.880258977558015
0                         0                        67.3278904751468         0.12366394923143083      -0.018413312717456165    0.018936465473359476     -41.77659196336543       41.776600313014214
0                         0                        67.33742476404225        0.12406217962099916      -0.01729528368002775     0.016974279812203008     -41.76535115274385       41.76535818312845
0                         0                        67.21984609668398        0.11914736181511415      -0.0055518098514539815   0.02550222567533922      -41.82956100036125       41.82956914276132
0                         0                        67.17020495468815        0.11707029058711338      3.5742577148312193E-4    0.02851887345602222      -41.85389769907988       41.853907416858235
0                         0                        67.3978788967498         0.1265860165449944       -0.022316593152615027    0.018073563035571283     -41.72964474875573       41.729654630027404
0                         0                        67.43613277788938        0.1281819219656635       -0.026476340701156786    0.01602224140577846      -41.70305921287408       41.7030706953495
0                         0                        67.48542268509908        0.13023646318014118      -0.03183320561432246     0.014602831514788583     -41.66242277671176       41.66243749735652
0                         0                        67.54523069528763        0.13272676099244596      -0.03516500065858885     0.0100072531410893       -41.61257743228214       41.6125934937978
0                         0                        67.56971177080956        0.1337452323807885       -0.03630501390935592     0.009706768480413075     -41.59229200395893       41.59230898156503
0                         0                        67.58579704305832        0.134414133376259        -0.03767012047467233     0.009363620479689416     -41.57707996885841       41.57709808839733
0                         0                        67.5747026558242         0.13395280294933676      -0.03672857465465995     0.009600297654998258     -41.58757206407441       41.58758939080857
0                         0                        66.8194001541784         0.1023782289744205       0.032808073500405044     0.04283235737988633      -41.87613595701362       41.87617071403275
0                         0                        66.81404900121441        0.10215409854875651      0.033172553463089116     0.04433266278380188      -41.88369882765787       41.88373542664553
0                         0                        66.59413760181216        0.09294771862614551      0.05483897611425448      0.052590555268693606     -41.82860157628579       41.82867058498827
0                         0                        66.60201094673964        0.09327705934844632      0.05410186355376467      0.05440719347143386      -41.83117741027064       41.83124777823246
0                         0                        66.59259389794204        0.09288314802544802      0.05500718596850618      0.05272593585522145      -41.82811775494997       41.828187155753966
0                         0                        66.79237712219805        0.10124613444109087      0.034948507993277644     0.0563849214498191       -41.89246806881643       41.89252059203864
0                         0                        66.5545787740612         0.09129376577798443      0.053352961955831724     0.05742625312700511      -41.8025532943945        41.80262678640889
0                         0                        66.54074822221668        0.0907156534144753       0.0556242215358993       0.05920253751691007      -41.795548284061255      41.79562722773479
0                         0                        66.31581789039043        0.08132998111045905      0.08304694534577095      0.06046121712887498      -41.64394087889363       41.64406757605093
0                         0                        66.28166689211558        0.07990822972905567      0.08784364743461026      0.06307793422297436      -41.61871340497163       41.618853910425564
0                         0                        66.22259752085938        0.0774508930243423       0.07299089652687485      0.08432167694974169      -41.58029781453308       41.58044737808198
0                         0                        66.17807875077825        0.07560167748236701      0.08939788146557248      0.06853091944304879      -41.513827583168705      41.51398040507787
0                         0                        66.20445439291339        0.07669698684957722      0.08941382794297681      0.06562849443741925      -41.544779089683956      41.5449271457124
0                         0                        66.17543014638048        0.07549172736095741      0.08838438452731623      0.06406383715068387      -41.52279547900088       41.52293896589684
0                         0                        66.07951135466386        0.07151449209861045      0.0962350897395936       0.07354340828401007      -41.40916150630261       41.409338638529995
0                         0                        66.15949648494716        0.07483030242298079      0.08556760803500651      0.06812524712350054      -41.50167666524581       41.50182079007437
0                         0                        66.17382812807128        0.07542520864551852      0.08362326129392272      0.06707351390528515      -41.51828376571805       41.518422158805414
0                         0                        65.96864039880491        0.06693050477170803      0.11140679509549045      0.07850441566772304      -41.281337396474726      41.281562369402344
0                         0                        65.96771232869258        0.06689219961785364      0.10682510435660841      0.07689526239375         -41.273397036186644      41.273606910361
0                         0                        65.93139359838851        0.065394040905818        0.11124913033623329      0.07759247344626452      -41.23443112942763       41.234654206485665
