% Model:              ElectrodesShort.mph
% Version:            COMSOL 5.5.0.292
% Date:               Mar 10 2026, 11:19
% Dimension:          1
% Nodes:              1000
% Expressions:        5
% Description:        Electric potential, Electric field, x component, Electric field, y component, Electric field, z component, Electric field norm
% cln1x                   V (V) @ TL=-0.1          es.Ex (V/m) @ TL=-0.1    es.Ey (V/m) @ TL=-0.1    es.Ez (V/m) @ TL=-0.1    es.normE (V/m) @ TL=-0.1
5.065000000000004         -4.4983804405948337E-4   0.037437895517621056     0.005880716845564321     6.954302266714088        6.954405524246923
5.195000000000004         -0.0013648152470233524   0.25203974077609814      0.14395136341318437      7.15906261269212         7.164944069454075
5.325000000000004         -0.002302865779340822    0.3139762963165724       0.12124550561473324      7.272484038345981        7.280268241986521
5.455000000000004         -0.0032556610969933057   0.3759128518570458       0.09853964781628655      7.385905463999842        7.396121960698443
5.5850000000000035        -0.0042232011999807926   0.4378494073975183       0.07583379001783719      7.499326889653705        7.512480726441163
5.715000000000003         -0.005205486088303267    0.4997859629379917       0.053127932219389606     7.612748315307566        7.629321431041554
5.845000000000004         -0.006202515761960759    0.5617225184784616       0.030422074420941136     7.726169740961428        7.746622267577388
5.975000000000004         -0.007214290220953252    0.6236590740189358       0.00771621662249089      7.839591166615291        7.864362646793293
6.105000000000004         -0.008240809465280734    0.6855956295594074       -0.01498964117595758     7.953012592269154        7.982523119252789
6.235000000000004         -0.009282073494943217    0.7475321850998795       -0.03769549897440516     8.066434017923012        8.101085302841138
6.365000000000004         -0.010338082309940714    0.8094687406403551       -0.06040135677285274     8.179855443576876        8.22003181525401
6.495000000000004         -0.011408835910273217    0.8714052961808267       -0.0831072145713021      8.293276869230738        8.339346211127308
6.6250000000000036        -0.012475954401402409    0.5821399107578378       -0.02357301646924803     8.104832109503096        8.125745878750763
6.7550000000000034        -0.013533526262972457    0.558480858688231        0.0051281857509168915    8.165504222344014        8.184582235699521
6.885000000000003         -0.014598985499211844    0.5348218066186234       0.033829387971086256     8.226176335184926        8.24361303615604
7.015000000000004         -0.01567233211012055     0.5111627545490158       0.06253059019125295      8.28684844802584         8.302834132806463
7.145000000000004         -0.016753566095698565    0.4875037024794082       0.09123179241141965      8.347520560866752        8.362241482639144
7.275000000000004         -0.01784268745594591     0.4638446504098015       0.11993299463158902      8.408192673707662        8.42183114418155
7.405000000000003         -0.018939696190862554    0.44018559834019433      0.14863419685175483      8.468864786548576        8.481599274800852
7.535000000000004         -0.02004643774593626     0.4539027038084398       0.13643680674914282      8.565366656991587        8.578470063797143
7.665000000000004         -0.02116630133947265     0.4807071096182902       0.1321991112582741       8.663304012799038        8.677637486576343
7.7950000000000035        -0.022298896789264007    0.5075115154281411       0.12796141576740183      8.7612413686065          8.776861191861205
7.925000000000004         -0.023444224095310356    0.5343159212379915       0.12372372027654421      8.859178724413953        8.876139292156038
8.055000000000003         -0.024602283257611646    0.5611203270478411       0.11948602478568038      8.957116080221406        8.975469982463661
8.185000000000004         -0.025773074276167908    0.5879247328576898       0.11524832929481077      9.055053436028867        9.074851535879208
8.315000000000005         -0.026956597150979165    0.6147291386675411       0.11101063380394693      9.152990791836318        9.174282299459993
8.445000000000004         -0.028152851882045353    0.6415335444773875       0.10677293831308443      9.250928147643773        9.27376069035176
8.575000000000003         -0.029361838469366526    0.6683379502872389       0.10253524282221615      9.34886550345123         9.373285192153025
8.705000000000004         -0.030583556912942674    0.6951423560970886       0.09829754733135099      9.446802859258685        9.472854351500905
8.835000000000004         -0.0318180072127738      0.7219467619069391       0.09405985184048893      9.544740215066138        9.572466774863047
8.965000000000003         -0.03306518936885987     0.748751167716786        0.08982215634961799      9.642677570873598        9.672121125521398
9.095000000000004         -0.03432510338120092     0.7755555735266362       0.08558446085875737      9.740614926681054        9.771816120734696
9.225000000000005         -0.03559774924979695     0.8023599793364884       0.08134676536789243      9.838552282488504        9.871550529067681
9.355000000000004         -0.03688312697464794     0.8291643851463355       0.07710906987702623      9.936489638295967        9.971323167875742
9.485000000000003         -0.03818123655575388     0.8559687909561866       0.07287137438616109      10.034426994103422       10.0711329009346
9.615000000000002         -0.03949207799311479     0.8827731967660346       0.06863367889529737      10.132364349910869       10.170978636205659
9.745000000000003         -0.040815651286730696    0.9095776025758882       0.06439598340443409      10.230301705718327       10.270859323727963
9.875000000000004         -0.042227870034843504    0.9874045147656503       0.2498092214004224       10.881883921780048       10.929445091584999
10.005000000000003        -0.04363875355777418     1.0422935598447074       0.2793332333255161       10.824016431000036       10.877671378502505
10.135000000000005        -0.04504211430690353     1.0971826049237647       0.308857245250616        10.766148940220019       10.826318186229875
10.265000000000004        -0.046437952282231416    1.1520716500028194       0.3383812571757112       10.708281449440017       10.775391527103283
10.395000000000003        -0.047826267483757914    1.2069606950818752       0.36790526910080956      10.650413958660014       10.724897477240738
10.525000000000004        -0.04920705991148302     1.2618497401609292       0.3974292810259016       10.592546467879997       10.67484217561824
10.655000000000003        -0.050580329565406715    1.3167387852399834       0.42695329295099965      10.534678977099997       10.62523182304601
10.785000000000004        -0.051946076445529024    1.3716278303190443       0.45647730487609595      10.476811486319992       10.576072681040879
10.915000000000003        -0.053304300551849905    1.426516875398094        0.4860013168011921       10.41894399553997        10.52737107059148
11.045000000000003        -0.0546550018843694      1.481405920477156        0.5155253287262895       10.361076504759966       10.479133370812308
11.175000000000004        -0.0560685106708809      2.4943958163583595       0.3083848958589659       11.523840034884035       11.794744629802551
11.305000000000003        -0.057574162050991425    2.4581215060483226       0.20320977386809425      11.747782014466091       12.003917602603984
11.435000000000002        -0.05909625299568091     2.438547915329527        0.24097634542721025      11.669001749988201       11.923514053148976
11.565000000000005        -0.060608102505988366    2.418974324610714        0.2787429169863156       11.590221485510316       11.843241468452835
11.695000000000004        -0.06210971058191363     2.3994007338919063       0.31650948854542094      11.511441221032442       11.763102529665598
11.825000000000003        -0.06360107722345675     2.3798271431730913       0.3542760601045227       11.432660956554578       11.683099986975805
11.955000000000004        -0.06508220243061782     2.360253552454292        0.3920426316636316       11.353880692076686       11.603236661674476
12.085000000000004        -0.06655308620339671     2.3406799617354856       0.4298092032227476       11.2751004275988         11.523515448285893
12.215000000000003        -0.06801372854179351     2.32110637101666         0.46757577478185297      11.196320163120914       11.443939316766972
12.345000000000004        -0.06946412944580817     2.301532780297861        0.5053423463409477       11.117539898643043       11.364511314777726
12.475000000000003        -0.0709042889154407      2.2819591895790596       0.5431089179000583       11.038759634165158       11.285234570024718
12.605000000000004        -0.07233420695069112     2.262385598860256        0.5808754894591583       10.959979369687286       11.20611229268008
12.735000000000003        -0.07375388355155939     2.2428120081414344       0.6186420610182637       10.8811991052094         11.127147777877951
12.865000000000004        -0.07516331871804555     2.223238417422617        0.6564086325773584       10.80241884073152        11.048344408291099
12.995000000000005        -0.07655712300887221     2.1663399910597567       0.8032645561634791       10.626044209361917       10.87433117223157
13.125000000000004        -0.07793723148689818     2.2185521281881906       0.7853834347899987       10.606393914115205       10.864363421135678
13.255000000000003        -0.07931478542654212     2.270764265316611        0.7675023134165395       10.58674361886851        10.854702695209655
13.385000000000002        -0.080689784827804       2.3229764024450374       0.7496211920430698       10.567093323621805       10.845349814921098
13.515000000000004        -0.08206222969068382     2.3751885395734553       0.7317400706696044       10.54744302837509        10.836305577380278
13.645000000000003        -0.08343212001518154     2.4274006767018745       0.7138589492961418       10.527792733128393       10.827570756012353
13.775000000000004        -0.08479945580129719     2.4796128138302986       0.695977827922677        10.508142437881686       10.819146100237367
13.905000000000005        -0.08616423704903077     2.531824950958731        0.6780967065491962       10.488492142634966       10.81103233515863
14.035000000000004        -0.08752646375838227     2.584037088087144        0.6602155851757335       10.468841847388264       10.803230161259481
14.165000000000003        -0.08888613592935168     2.6362492252155496       0.6423344638022761       10.449191552141562       10.795740254108763
14.295000000000003        -0.09024325356193912     2.6884613623439897       0.6244533424288112       10.42954125689487        10.788563264075492
14.425000000000002        -0.09159781665614437     2.7406734994723934       0.6065722210553441       10.409890961648152       10.781699816052669
14.555000000000003        -0.09294982521196761     2.7928856366008397       0.588691099681873        10.390240666401445       10.775150509190963
14.685000000000002        -0.09429927922940874     2.8450977737292487       0.5708099783084064       10.370590371154746       10.768915916641893
14.815000000000001        -0.09564617870846782     2.8973099108576763       0.5529288569349374       10.350940075908042       10.762996585311392
14.945000000000004        -0.0969905236491449      2.9495220479860906       0.5350477355614746       10.331289780661338       10.75739303562359
15.075000000000003        -0.09818300930426192     2.0265571085095484       0.5147653518461031       8.889084019408294        9.131688331607235
15.205000000000004        -0.09934645748966332     2.251739172598443        0.4531660710366303       9.010118832920778        9.298275655878717
15.335000000000004        -0.10058704843530834     2.3452833535524285       0.2934496120936654       9.645183835233894        9.930560804846081
15.465000000000003        -0.10183297806998604     2.3706157612708303       0.2623299717680929       9.522964390577478        9.81710175590944
15.595000000000004        -0.10306301917685845     2.395948168989243        0.23121033144251513      9.400744945921032        9.704021402702516
15.725000000000005        -0.10427717175592553     2.421280576707648        0.2000906911169329       9.278525501264593        9.591333139529183
15.855000000000004        -0.10547543580718725     2.4466129844260713       0.16897105079136043      9.156306056608187        9.479050950060747
15.985000000000003        -0.10665781133064363     2.4719453921444767       0.13785141046580396      9.034086611951746        9.367189436824555
16.115000000000002        -0.10782429832629468     2.497277799862868        0.10673177014021018      8.911867167295323        9.255763852214551
16.245                    -0.1089748967941404      2.522610207581291        0.07561212981461907      8.789647722638882        9.144790131088811
16.375000000000004        -0.11010430778382413     2.7702675987109684       0.09006015105585519      8.577488046105495        9.014199608415531
16.505000000000003        -0.11120852308760718     2.8623121858338987       0.04376246958397623      8.410439704402917        8.88426936918925
16.635                    -0.1122910221069689      2.9543567729568188       -0.002535211887922273    8.24339136270036         8.756810579649308
16.765                    -0.11335180484190924     3.046401360079753        -0.04883289335979768     8.076343020997758        8.631932720485537
16.895000000000003        -0.11439087129242831     3.138445947202701        -0.09513057483168907     7.9092946792951935       8.509749415447445
17.025000000000006        -0.11540822145852604     3.230490534325645        -0.14142825630359113     7.742246337592625        8.390378382171752
17.155000000000005        -0.11640385534020241     3.3225351214485794       -0.18772593777547186     7.575197995890043        8.273941342426204
17.285000000000004        -0.11737777293745741     3.4145797085715044       -0.23402361924736148     7.408149654187457        8.160563886116671
17.415000000000003        -0.11832997425029117     3.5066242956944724       -0.2803213007192351      7.241101312484878        8.050375283206487
17.545                    -0.11926045927870345     3.5986688828173947       -0.32661898219113583     7.074052970782317        7.943508237618936
17.675000000000004        -0.12029676420060256     2.8704376014373167       0.2936235152182398       8.024458312117398        8.52745905855574
17.805000000000003        -0.12133641176997097     2.9213783575751506       0.2748484907717561       7.970119678166467        8.493103136385685
17.935000000000002        -0.1223689953169258      2.972319113713006        0.25607346632528305      7.915781044215505        8.45930517677788
18.065000000000005        -0.12339451484146702     3.023259869850854        0.23729844187879934      7.861442410264534        8.426071893894244
18.195000000000004        -0.12441297034359462     3.0742006259886807       0.21852341743230141      7.807103776313559        8.393409995164356
18.325000000000003        -0.12542436182330852     3.1251413821265146       0.19974839298583547      7.752765142362575        8.36132617659497
18.455000000000002        -0.12642868928060885     3.17608213826437         0.1809733685393411       7.698426508411625        8.329827117926113
18.585                    -0.12753519835491867     2.7235068240534686       -0.3970959230566198      9.335982582990159        9.733228928915091
18.715000000000003        -0.12873600708682026     2.8946512451011612       -0.3155999295652938      9.137997907804053        9.590704609638363
18.845000000000002        -0.12970904252737248     2.481644381795018        -0.5634219713097846      6.154171360477946        6.6595666743097
18.975                    -0.13050441868506532     2.498934099507448        -0.5871978934845572      6.082384911718304        6.601884519899775
19.105000000000004        -0.1312904626044193      2.516223817219874        -0.6109738156593032      6.010598462958557        6.544613448072056
19.235000000000003        -0.13206717428543452     2.5335135349322826       -0.6347497378340279      5.938812014198856        6.48776434539342
19.365000000000002        -0.13283455372811098     2.5508032526447018       -0.6585256600087952      5.867025565439107        6.4313484017046445
19.495000000000005        -0.133594693676521       3.2966554605873313       -0.059945969998299375    6.254264483793133        7.070173617272456
19.625000000000004        -0.13439828118276712     3.2609846582103827       -0.09877545249089792     6.108620227685048        6.925245022176558
19.755000000000003        -0.1351829349357191      3.225313855833452        -0.13760493498348225     5.962975971576952        6.78075711291646
19.885000000000005        -0.1359486549353771      3.189643053456532        -0.17643441747610566     5.817331715468853        6.636738671963318
20.015000000000004        -0.13669544118174098     3.153972251079587        -0.2152638999686829      5.6716874593607916       6.493220937553275
20.145000000000003        -0.1374232936748109      3.118301448702667        -0.25409338246130275     5.526043203252714        6.350237858238642
20.275000000000002        -0.1381343970210913      3.129340942893167        -0.2970520875849161      5.419774257078306        6.265378494336536
20.405                    -0.1388324710278279      3.1498467311148577       -0.3342819044520944      5.319825846562164        6.191431648569652
20.535000000000004        -0.13951755174119745     3.170352519336543        -0.37151172131926913     5.219877436046019        6.118519143002131
20.665                    -0.14018963916119986     3.1908583075582566       -0.4087415381865007      5.119929025529892        6.046678394822738
20.795                    -0.1408487332878352      3.211364095779942        -0.445971355053679       5.019980615013699        5.9759480570287975
20.925000000000004        -0.14149483412110347     3.231869884001652        -0.4832011719208431      4.920032204497566        5.906368022139808
21.055000000000003        -0.14212794166100456     3.252375672223355        -0.5204309887880285      4.820083793981418        5.83797942000171
21.185000000000002        -0.1427480559075386      3.272881460445019        -0.557660805655253       4.720135383465264        5.77082460888646
21.315                    -0.14335517686070556     3.2933872486667486       -0.5948906225224526      4.62018697294914         5.704947159041425
21.445000000000004        -0.1439493045205054      3.313893036888442        -0.6321204393896416      4.520238562432975        5.640391827802212
21.575000000000003        -0.14453043888693812     3.334398825110134        -0.6693502562568447      4.420290151916826        5.577204525349579
21.705000000000002        -0.14509857996000375     3.3549046133318288       -0.7065800731240577      4.320341741400679        5.5154322701652525
21.835000000000004        -0.1456537277397023      3.375410401553551        -0.7438098899912591      4.220393330884553        5.455123133233522
21.965000000000003        -0.14619588222603375     3.395916189775237        -0.7810397068584389      4.120444920368384        5.396326170039826
22.095000000000006        -0.14672504341899809     3.416421977996936        -0.8182695237256038      4.020496509852237        5.3390913394446295
22.225                    -0.1472412113185953      3.436927766218637        -0.8554993405927878      3.9205480993360875       5.283469408557897
22.355000000000004        -0.14774438592482542     3.45743355444033         -0.8927291574600238      3.8205996888199487       5.229511842816715
22.485000000000007        -0.14828400850694926     3.454962627149931        -0.27355373963549146     4.136336230951473        5.396376174707722
22.615000000000002        -0.14881097891844106     3.5108626001793946       -0.3593971301732435      3.9709008689222784       5.312567760068843
22.745000000000005        -0.1493164427328691      3.5667625732088766       -0.4452405207109744      3.8054655068930474       5.234653961732269
22.875000000000004        -0.14980039995023325     3.622662546238349        -0.5310839112487269      3.6400301448638333       5.162901655098882
23.005000000000003        -0.15026285057053365     3.67856251926783         -0.6169273017864656      3.474594782834604        5.09757103028031
23.135000000000005        -0.15070379459377026     3.7344624922972933       -0.7027706923242198      3.309159420805381        5.038911869111245
23.265000000000004        -0.15112323201994307     3.7903624653267904       -0.7886140828619568      3.143724058776165        4.987159587177302
23.395000000000003        -0.15152116284905204     3.8462624383562467       -0.8744574733997021      2.978288696746949        4.942531151006069
23.525                    -0.15189758708109727     3.902162411385717        -0.9603008639374431      2.812853334717717        4.905221005902097
23.655                    -0.1522525047160786      3.9580623844152          -1.046144254475187       2.647417972688503        4.8753971696886484
23.785000000000004        -0.15258591575399624     4.0139623574446865       -1.1319876450129405      2.4819826106592746       4.853197658766834
23.915000000000003        -0.15289782019485004     4.069862330474155        -1.2178310355506836      2.316547248630073        4.838727412791356
24.045                    -0.1531882180386401      4.125762303503617        -1.3036744260884339      2.1511118866008516       4.832055871254383
24.175                    -0.15349579500081828     3.608908803550108        -1.440540726475998       2.462671784096816        4.6004491795002
24.305000000000003        -0.15381482913115757     3.5827776137771536       -1.4429154548625611      2.4455456057374256       4.571541725655097
24.435000000000002        -0.15413163685831005     3.5566464240041853       -1.4452901832491314      2.428419427378058        4.542666443229708
24.565                    -0.1544462181822758      3.5305152342312027       -1.4476649116356946      2.411293249018682        4.513823949633266
24.695000000000004        -0.15475857310305494     3.5043840444582486       -1.45003964002224        2.3941670706593214       4.485014877446765
24.825000000000003        -0.15496351952021778     1.6557371327145844       -2.4123488536408004      0.8347002742394238       3.0426332332582198
24.955000000000005        -0.15506448222238334     1.6473694346420942       -2.2768145010297687      0.7185720667684912       2.900699250427798
25.085                    -0.1551503482575776      1.6390017365695897       -2.141280148418719       0.6024438592977148       2.763032024804589
25.215000000000003        -0.15534335816070527     4.604948252618614        -2.200183415054687       7.5177048885572795       9.08637673996709
25.345000000000006        -0.15630907992271906     4.308307531605308        -2.4087275103421004      7.339552988579312        8.844914927693166
25.475                    -0.1572516419377359      4.0116668105919935       -2.617271605629517       7.161401088601359        8.61563966334831
25.605000000000004        -0.15777159994667758     4.730169246201033        0.14680776926281247      1.8960595988380153       5.09814629264086
25.735000000000003        -0.15801334824199006     4.669864956903638        0.138679167427739        1.823144944430371        5.015050160825621
25.865000000000002        -0.15824561763222947     4.609560667606289        0.13055056559261757      1.750230290022714        4.932382696692591
25.995000000000005        -0.15846840811739596     4.549256378308911        0.12242196375753167      1.677315635615035        4.850165819255382
26.125000000000004        -0.15868171969748945     4.488952089011537        0.11429336192247419      1.604400981207386        4.768422835542147
26.255000000000003        -0.15888555237250984     4.42864779971417         0.10616476008737052      1.531486326799738        4.687178539310416
26.385                    -0.15907990614245732     4.368343510416771        0.09803615825232015      1.4585716723920723       4.606459316745324
26.515000000000004        -0.1592647810073318      4.308039221119397        0.0899075564172378       1.3856570179843928       4.526293259488756
26.645000000000007        -0.1594401769671333      4.247734931822034        0.08177895458218742      1.3127423635767541       4.446710285319112
26.775000000000006        -0.1596060940218617      4.18743064252466         0.07365035274709086      1.239827709169071        4.367742266759531
26.905000000000005        -0.15976253217151726     4.127126353227279        0.06552175091199786      1.1669130547614222       4.289423167830181
27.035000000000004        -0.1599094914160997      4.066822063929909        0.05739314907693682      1.0939984003537546       4.21178918907448
27.165000000000006        -0.1600469717556092      4.006517774632528        0.04926454724187579      1.0210837459460818       4.134878920875025
27.295000000000005        -0.1601749731900457      3.9462134853351714       0.041135945406814756     0.9481690915384258       4.058733504924224
27.425                    -0.16029349571940926     3.885909196037794        0.03300734357170043      0.8752544371307756       3.983396803520566
27.555000000000003        -0.16040253934369972     3.82560490674042         0.024878741736618082     0.8023397827230991       3.908915576116594
27.685000000000002        -0.1605021040629172      3.7653006174430317       0.01675013990152152      0.7294251283154431       3.835339662236136
27.815                    -0.16059218987706175     3.7049963281456755       0.008621538066439172     0.6565104739077952       3.762722169499391
27.945                    -0.1606727967861332      3.6446920388482766       4.929362313887964E-4     0.5835958195001334       3.6911196650295923
28.075000000000003        -0.16074392479013175     3.584387749550917        -0.007635665603700659    0.5106811650924516       3.6205923679558407
28.205000000000002        -0.16080557388905722     3.524083460253543        -0.01576426743881143     0.43776651068479966      3.5512043400567097
28.335                    -0.16085774408290981     3.4637791709561796       -0.02389286927388312     0.36485185627714056      3.483023670803989
28.465000000000003        -0.16090043537168935     3.403474881658788        -0.032021471108983235    0.29193720186947303      3.4161226521496064
28.595                    -0.1609336477553959      3.3431705923614423       -0.04015007294404427     0.21902254746184058      3.3505779373541578
28.725                    -0.16095738123402942     3.2828663030640506       -0.04827867477913372     0.1461078930541655       3.2864706769792704
28.855000000000004        -0.1609716358075899      3.22256201376668         -0.05640727661423384     0.07319323864649752      3.223886623876615
28.985000000000003        -0.1609764114760775      3.162257724469292        -0.06453587844925934     2.785842388037807E-4     3.1629161976223936
29.115000000000002        -0.1609717082394921      3.101953435171904        -0.07266448028433814     -0.07263607016881224     3.1036544974206355
29.245                    -0.1609575260978336      3.0416491458745405       -0.0807930821193672      -0.1455507245764922      3.046201251090021
29.375000000000004        -0.16093386505110216     2.981344856577177        -0.08892168395450639     -0.2184653789841433      2.99066068645896
29.505000000000003        -0.16090072509929773     2.9210405672797926       -0.09705028578953545     -0.2913800333918064      2.9371413104454973
29.635                    -0.16089827930422557     2.8994138254461026       -0.39078636113881515     -0.03464171095659552     2.925835702731464
29.765000000000004        -0.16089168872710707     2.8626276613102295       -0.40758624964782575     -0.06675178317347275     2.892268915359928
29.895000000000003        -0.16088092384060046     2.825841497174322        -0.42438613815682946     -0.09886185539036418     2.859240708276116
30.025000000000006        -0.16086598464470558     2.7890553330384633       -0.44118602666582496     -0.13097192760725562     2.826769959989074
30.155000000000005        -0.1608468711394226      2.7522691689025685       -0.457985915174828       -0.1630819998241435      2.7948761001620093
30.285000000000004        -0.16082358332475136     2.715483004766699        -0.4747858036838437      -0.1951920720410456      2.7635791020964406
30.415000000000006        -0.16079612120069187     2.678696840630815        -0.49158569219284254     -0.22730214425793527     2.7328994715427206
30.545                    -0.16076448476724423     2.6419106764949163       -0.5083855807018801      -0.2594122164748205      2.702858231446813
30.675000000000004        -0.16072867402440844     2.605124512359076        -0.5251854692108615      -0.2915222886917066      2.673476902232072
30.805000000000007        -0.1606886889721844      2.5683383482231665       -0.5419853577198741      -0.3236323609086016      2.644777477211215
30.935000000000002        -0.16064452961057218     2.531552184087293        -0.5587852462289105      -0.35574243312548853     2.616782392727047
31.065000000000005        -0.1605961959395718      2.494766019951424        -0.5755851347379058      -0.387852505342392       2.589514492629051
31.195000000000004        -0.16054368795918317     2.4579798558155415       -0.592385023246909       -0.41996257755928035     2.562996986715448
31.325000000000006        -0.1604870056694064      2.421193691679665        -0.6091849117559112      -0.45207264977615846     2.5372534027991955
31.455                    -0.16042614907024141     2.384407527543785        -0.625984800264902       -0.4841827219930579      2.5123075321000736