% Model:              ElectrodesShort.mph
% Version:            COMSOL 5.5.0.292
% Date:               Mar 10 2026, 11:19
% Dimension:          1
% Nodes:              1000
% Expressions:        5
% Description:        Electric potential, Electric field, x component, Electric field, y component, Electric field, z component, Electric field norm
% cln1x                   V (V) @ TL=-0.07         es.Ex (V/m) @ TL=-0.07   es.Ey (V/m) @ TL=-0.07   es.Ez (V/m) @ TL=-0.07   es.normE (V/m) @ TL=-0.07
5.08                      -5.577525797963403E-4    0.009214039137617647     -0.012253987569982666    7.002157228067225        7.00217401278365
5.24                      -0.0016877777300832756   0.027642117412851386     -0.03676196270994597     7.123157150519526        7.12330564552405
5.4                       -0.0028371628679625775   0.04607019568808424      -0.06126993784991053     7.244157072971824        7.244562662169648
5.56                      -0.004005907993434249    0.06449827396331864      -0.0857779129898738      7.365156995424121        7.365938870568097
5.72                      -0.005194013106498286    0.08292635223855105      -0.11028588812983853     7.486156917876421        7.487428474188263
5.88                      -0.006401478207154708    0.10135443051378434      -0.1347938632698027      7.60715684032872         7.609026041453664
6.04                      -0.007628303295403487    0.11978250878901697      -0.15930183840976664     7.72815676278102         7.730726477844792
6.2                       -0.008874488371244636    0.13821058706425227      -0.18380981354973125     7.8491566852333206       7.8525250004872165
6.36                      -0.010140033434678146    0.15663866533948534      -0.20831778868969586     7.97015660768562         7.974417114974527
6.5200000000000005        -0.011424938485704035    0.1750667436147184       -0.23282576382965914     8.091156530137917        8.09639859420324
6.68                      -0.01272920352432229     0.19349482188995193      -0.2573337389696242      8.21215645259022         8.218465459021502
6.84                      -0.014052828550532906    0.21192290016518545      -0.28184171410958925     8.333156375042517        8.340613960515041
7                         -0.015395813564335888    0.23035097844041985      -0.3063496892495521      8.454156297494816        8.462840563773076
7.16                      -0.01675815856573125     0.24877905671565337      -0.33085766438951625     8.575156219947113        8.585141932993494
7.32                      -0.01813986355471897     0.2672071349908878       -0.35536563952947997     8.696156142399415        8.70751491780171
7.48                      -0.01954092853129907     0.2856352132661186       -0.37987361466944414     8.817156064851714        8.82995654067057
7.640000000000001         -0.02096135349547152     0.3040632915413548       -0.4043815898094092      8.938155987304013        8.952463985340477
7.800000000000001         -0.022382361254170972    0.6962275183086324       -0.3273890264428827      8.847274792301512        8.88066369042197
7.960000000000001         -0.02380547385930238     0.7514853868428175       -0.33314282360076763     8.941632771841002        8.979338007560244
8.12                      -0.025243683741160067    0.806743255377           -0.3388966207586561      9.035990751380481        9.07826054146341
8.280000000000001         -0.02666699088537007     0.6674419468659769       0.006936331684971986     8.902583162729885        8.92757043290363
8.44                      -0.028095261351255583    0.6788488813089137       0.059203256062429516     8.950797660839278        8.976698702444493
8.6                       -0.029531246136838628    0.6902558157518683       0.1114701804398921       8.999012158948672        9.02613419627764
8.76                      -0.031040090540532625    0.7688804721456837       0.0383789479400346       9.563470499762296        9.594405563864582
8.920000000000002         -0.03258107146978901     0.7782452074660453       0.058936502771840815     9.688466601971543        9.71985206738358
9.08                      -0.034136769527052344    0.7647316036840479       0.07446812289057203      9.757759113820375        9.787963161472597
9.239999999999998         -0.035703554386211485    0.7512179999020789       0.08999974300930813      9.827051625669188        9.85613372934266
9.399999999999999         -0.03728142604726647     0.7377043961200958       0.10553136312803568      9.896344137518009        9.92436254541548
9.56                      -0.03887038451021727     0.7241907923381081       0.12106298324676512      9.965636649366852        9.992648416552225
9.719999999999999         -0.04047042977506386     0.710677188556132        0.13659460336549323      10.034929161215667       10.060990181021905
9.879999999999999         -0.042081561841806274    0.6971635847741409       0.15212622348422644      10.104221673064492       10.129386707507662
10.04                     -0.0437037807104445      0.6836499809921648       0.16765784360295455      10.17351418491332        10.19783689414891
10.2                      -0.04533731730562324     1.0290389102685806       0.23622491391108102      10.358778429048524       10.412445141796429
10.360000000000001        -0.047002530245227325    1.0615460975400084       0.24276906060309789      10.456383316002466       10.51293341485445
10.520000000000001        -0.048683359966744034    1.094053284811432        0.24931320729511874      10.553988202956415       10.613471470422937
10.68                     -0.050379806470173365    1.1265604720828533       0.2558573539871327       10.651593089910353       10.714057907061862
10.84                     -0.05209186975551533     1.1590676593543021       0.2624015006791498       10.749197976864298       10.814691374807847
11                        -0.05381954982276995     1.1915748466257288       0.2689456473711749       10.846802863818247       10.915370572861315
11.16                     -0.055562846671937186    1.2240820338971439       0.2754897940631933       10.944407750772188       11.01609424739572
11.32                     -0.05732176030301705     1.2565892211685714       0.2820339407552126       11.042012637726131       11.116861189481433
11.48                     -0.05909629071600954     1.2890964084400007       0.28857808744723723      11.139617524680075       11.21767023311735
11.64                     -0.06088491440902264     1.320515781032599        0.3399369676649364       11.155749987610525       11.238775594165656
11.8                      -0.06266643627853409     1.364183643438455        0.3657113161533836       11.113273381282387       11.202659819297706
11.959999999999999        -0.06444116189103301     1.4078515058443433       0.39148566464180945      11.070796774954246       11.166819069030606
12.12                     -0.06620909124651943     1.4515193682502243       0.4172600131302566       11.02832016862611        11.131255999961928
12.28                     -0.06797022434499335     1.4951872306560965       0.4430343616186825       10.985843562297974       11.09597328203235
12.440000000000001        -0.06972456118645477     1.5388550930619775       0.46880871010711544      10.943366955969843       11.060973598066662
12.600000000000001        -0.07147210177090374     1.582522955467855        0.49458305859554486      10.9008903496417         11.026259643294456
12.76                     -0.07321284609834011     1.6261908178737485       0.520357407083992        10.858413743313562       10.991834124850362
12.920000000000002        -0.07494679416876406     1.669858680279627        0.546131755572425        10.815937136985426       10.957699761253286
13.080000000000002        -0.07667394598217549     1.7135265426854955       0.5719061040608651       10.773460530657275       10.923859281864624
13.239999999999998        -0.07837333516522685     1.5756810046962064       0.3862023318994826       10.46195728388237        10.58699546989156
13.399999999999999        -0.08004065538700444     1.6171666703328107       0.4449575397000656       10.379545488337563       10.514189450273372
13.56                     -0.08169478972149488     1.6586523359693706       0.5037127475006311       10.297133692792757       10.442021662056591
13.719999999999999        -0.08333573816869813     1.7001380016059482       0.5624679553012021       10.214721897247927       10.370505429503504
13.88                     -0.08496350072861424     1.7416236672425          0.6212231631017731       10.132310101703123       10.299654324963948
14.04                     -0.08657807740124311     1.7831093328790892       0.6799783709023477       10.049898306158328       10.22948216881087
14.200000000000001        -0.0881794681865849      1.824594998515641        0.7387335787029219       9.967486510613508        10.160003028945107
14.36                     -0.08976767308463945     1.8660806641522107       0.7974887865034869       9.8850747150687          10.091231219836958
14.52                     -0.09134269209540687     1.9075663297887981       0.8562439943040676       9.802662919523875        10.023181301070736
14.68                     -0.09290583862586185     1.8693967307827313       0.9174246295329871       9.756188789425579        9.97594766339761
14.84                     -0.09445886919996167     1.8760318940686218       0.9515998533523198       9.656693386821754        9.883155625383518
15                        -0.0959989039992185      1.8361032150476733       0.6944185722345964       10.006560735125536       10.197291302867091
15.16                     -0.09758696967321157     1.831198313205204        0.7088870454655556       9.844260189787772        10.038190414101281
15.32                     -0.0991490672599506      1.8262934113627596       0.7233555186965148       9.681959644450004        9.879217245691795
15.48                     -0.10068519675943555     1.8213885095202935       0.7378239919274794       9.519659099112221        9.720378064097428
15.64                     -0.10219535817166647     1.8164836076778463       0.752292465158459        9.357358553774448        9.561679546711046
15.8                      -0.1036795514966434      1.8115787058353798       0.7667609383894023       9.19505800843666         9.403128815590646
15.96                     -0.10513777673436624     1.8066738039929184       0.7812294116203691       9.032757463098886        9.244733474513128
16.12                     -0.10657003388483505     1.8017689021504528       0.7956978848513294       8.87045691776111         9.08650164973128
16.279999999999998        -0.10797632294804978     1.7968640003079894       0.8101663580822978       8.70815637242335         8.928442034865242
16.439999999999998        -0.10935664392401048     1.7919590984655243       0.8246348313132668       8.545855827085564        8.770563940415732
16.599999999999998        -0.11071099681271715     1.7870541966230724       0.839103304544226        8.383555281747816        8.61287734845254
16.759999999999998        -0.11203938161416976     1.7821492947806068       0.8535717777751906       8.221254736410021        8.455392973105715
16.919999999999998        -0.1133417983283683      1.7772443929381554       0.8680402510061604       8.058954191072257        8.298122327574958
17.08                     -0.11461824695531288     1.772339491095683        0.8825087242371197       7.896653645734482        8.141077798470151
17.240000000000002        -0.11587215361009043     1.5579098852418136       1.1272744164399142       8.160646507811602        8.384150657398267
17.4                      -0.11715974652080295     1.5133056620448384       1.06828816743191         7.934264876095558        8.147631113366366
17.560000000000002        -0.11841111837044102     1.4687014388478614       1.0093019184238847       7.707883244379533        7.911209666542448
17.72                     -0.11962626915900441     1.424097215650848        0.9503156694158923       7.481501612663534        7.674895382443264
17.880000000000003        -0.12080519888649328     1.3794929924538843       0.8913294204078701       7.255119980947487        7.438698474186023
18.04                     -0.12194790755290764     1.3348887692568923       0.8323431713998453       7.028738349231464        7.2026304891491675
18.200000000000003        -0.12305439515824734     1.2902845460599135       0.7733569223918462       6.802356717515423        6.966704533101689
18.36                     -0.12421944698260179     1.5764491943890846       1.0472531137045686       7.396391358910706        7.634692939524344
18.52                     -0.12539596733972827     1.5343207969306052       1.0189002494787696       7.310113105170781        7.538570928012235
18.68                     -0.1266045123427448      0.33305708139990386      0.31640055414878887      7.683881543274353        7.6976016980101365
18.84                     -0.1278174849656151      0.48625253768946664      0.38513903072839817      7.478276242604647        7.50395823309971
19                        -0.12899756074037833     0.6394479939790436       0.4538775073080181       7.27267094193493         7.314823385312092
19.16                     -0.13014473966703427     0.7926434502686348       0.5226159838876399       7.067065641265199        7.130555930908873
19.32                     -0.13125902174558318     0.945838906558194        0.5913544604672349       6.8614603405954835       6.9515429467592575
19.479999999999997        -0.13234040697602484     1.0990343628477568       0.6600929370468744       6.655855039925779        6.778200758959913
19.64                     -0.1333055983168628      0.9648944881132868       1.1724681747495769       5.667892687997465        5.8677687852067875
19.799999999999997        -0.1342006316789642      0.8390846995368042       1.2009165283905432       5.5200243382705345       5.71112356163456
19.96                     -0.13507200610510936     0.7132749109603069       1.229364882031506        5.372155988543593        5.556991909029791
20.119999999999997        -0.13591972159529814     0.587465122383823        1.2578132356724794       5.224287638816634        5.405588842942329
20.28                     -0.13674377814953068     0.4616553338073266       1.2862615893134484       5.076419289089699        5.257150114084425
20.44                     -0.13754417576780684     0.33584554523084953      1.3147099429544404       4.928550939362741        5.1119339614521655
20.6                      -0.13832091445012676     0.21003575665433694      1.3431582965953823       4.7806825896358          4.970222857340828
20.76                     -0.1390559269972312      1.2932408355809741       1.4390687679788599       4.846607347621806        5.218524078684322
20.92                     -0.1398034276486757      1.398913341368825        1.1657071095139244       4.497150795435182        4.851824077469657
21.08                     -0.14049501525177036     1.5045858471566547       0.8923454510489712       4.1476942432485515       4.501491587346251
21.240000000000002        -0.14113068980651527     1.6102583529444985       0.6189837925839683       3.7982376910619067       4.1716522453953955
21.4                      -0.1417104513129102      1.7159308587323672       0.3456221341190364       3.448781138875283        3.8675528070609317
21.560000000000002        -0.14223429977095534     1.8216033645201968       0.0722604756540477       3.0993245866886525       3.5957298685560124
21.72                     -0.1427022351806505      1.9272758703080655       -0.20110118281090195     2.749868034502015        3.364016672547214
21.88                     -0.14312828573030317     1.3883389654042446       1.426917904970809        3.9098554333240596       4.387544791780441
22.04                     -0.1437454303857533      1.4225454409740124       1.448581043207776        3.804452759802807        4.312294444022586
22.2                      -0.14434571061344006     1.4567519165437943       1.4702441814447216       3.6990500862815474       4.238716272675679
22.36                     -0.14492912641336342     1.4909583921135692       1.491907319681692        3.593647412760313        4.166898859436425
22.52                     -0.14549567778552336     1.5251648676833245       1.5135704579186573       3.488244739239039        4.096934801229868
22.68                     -0.1460453647299199      1.55937134325311         1.5352335961556136       3.382842065717783        4.02892065229804
22.84                     -0.14657818724655305     1.5935778188228689       1.5568967343925646       3.2774393921965235       3.9629568097227605
23                        -0.1470941453354228      1.6277842943926402       1.5785598726295298       3.172036718675282        3.8991473330937048
23.16                     -0.14759323899652912     1.6619907699624186       1.6002230108664914       3.066634045154022        3.8375996887174946
23.32                     -0.14807546822987214     1.6961972455321757       1.621886149103485        2.961231371632766        3.7784244087644185
23.48                     -0.14854083303545162     1.7304037211019399       1.6435492873403987       2.8558286981115097       3.7217346561620768
23.64                     -0.14898933341326775     1.7646101966717342       1.6652124255773817       2.750426024590252        3.6676456869821137
23.8                      -0.14942096936332053     1.7988166722415126       1.6868755638143398       2.645023351068997        3.6162742036284032
23.959999999999997        -0.14983574088560986     1.8330231478112875       1.7085387020513174       2.539620677547771        3.5677375944213443
24.119999999999997        -0.1502391044885451      1.9261488795830157       1.6547379900503465       2.616598157775209        3.6462025782048073
24.28                     -0.1506503042539653      1.9680067840870752       1.6450972319968535       2.5233989099773844       3.5981853292752324
24.439999999999998        -0.15104659213973784     2.009864688591101        1.635456473943357        2.430199662179569        3.552484249460697
24.599999999999998        -0.1514279681458628      2.0517225930951604       1.6258157158898925       2.337000414381763        3.5091898321225403
24.76                     -0.15179443227234002     2.0935804975992056       1.616174957836371        2.243801166583955        3.4683922023653335
24.92                     -0.15214598451916966     2.1354384021032278       1.606534199782903        2.1506019187861503       3.4301804496754906
25.08                     -0.1524826248863516      2.17729630660725         1.5968934417293816       2.0574026709883304       3.39464189887443
25.24                     -0.15280435337388595     2.2191542111113023       1.5872526836759207       1.9642034231905363       3.361861327033413
25.400000000000002        -0.15311116998177257     2.2610121156153546       1.5776119256223957       1.8710041753927111       3.331920136972431
25.560000000000002        -0.1534030747100116      2.302870020119407        1.567971167568917        1.7778049275949397       3.304895500991376
25.72                     -0.15368006755860297     2.3447279246234345       1.5583304095154276       1.6846056797971114       3.2808594913732785
25.880000000000003        -0.15394214852754662     2.3865858291274584       1.548689651461924        1.5914064319993093       3.2598782167660842
26.040000000000003        -0.15426324520276727     1.898379379825819        1.684959034133501        2.2020571163906055       3.360355153894075
26.2                      -0.15445952202524463     1.2476872796938956       -0.29053350468051775     0.9026523528593202       1.5671357743904528
26.36                     -0.15459973672311886     1.252322522688318        -0.2895007171771198      0.8500313705681286       1.5409982793723134
26.520000000000003        -0.15473153206382648     1.2569577656827207       -0.288467929673736       0.7974103882769406       1.516251924480998
26.68                     -0.15485490804736746     1.2615930086771225       -0.28743514217033095     0.7447894059857632       1.4929658870068325
26.84                     -0.15496986467374188     1.2662282516715235       -0.2864023546669543      0.6921684236945609       1.4712095095022029
27.000000000000004        -0.15507640194294978     1.2708634946659165       -0.2853695671635528      0.639547441403387        1.4510515985805599
27.160000000000004        -0.15517451985499103     1.2754987376603184       -0.28433677966015836     0.5869264591121919       1.432559633120573
27.32                     -0.15526421840986565     1.2801339806547336       -0.2833039921567746      0.5343054768210251       1.415798892131168
27.48                     -0.1553454976075737      1.2847692236491515       -0.28227120465336597     0.48168449452983353      1.4008315185213984
27.639999999999997        -0.1554183574481152      1.289404466643553        -0.28123841714997155     0.42906351223864725      1.3877155412460906
27.8                      -0.1554827979314901      1.2940397096379677       -0.2802056296465807      0.3764425299474663       1.3765038842512582
27.96                     -0.15553881905769834     1.2986749526323604       -0.2791728421431863      0.32382154765628357      1.3672433957095858
28.119999999999997        -0.1555864208267401      1.3033101956267938       -0.2781400546397901      0.2712005653650946       1.359973934556881
28.279999999999998        -0.15562560323861518     1.3079454386211884       -0.2771072671364081      0.2185795830739119       1.3547275527007439
28.439999999999998        -0.15565636629332374     1.3125806816156111       -0.2760744796329968      0.1659586007827154       1.3515278100094312
28.599999999999998        -0.15567870999086564     1.3172159246100055       -0.27504169212962415     0.11333761849154977      1.350389255074645
28.759999999999998        -0.15569263433124106     1.3218511676044207       -0.2740089046262234      0.060716636200348395     1.3513170978801086
28.92                     -0.15569813931444978     1.3264864105987975       -0.2729761171228331      0.008095653909184986     1.3543070913330395
29.08                     -0.15569522494049196     1.3311216535932389       -0.2719433296194431      -0.04452532838202394     1.35934562788749
29.24                     -0.15568389120936754     1.3357568965876265       -0.27091054211600607     -0.09714631067319512     1.366410046175162
29.4                      -0.15566413812107652     1.3403921395820595       -0.26987775461264185     -0.14976729296437163     1.3754691317256118
29.560000000000002        -0.15563596567561896     1.3450273825764394       -0.26884496710928474     -0.20238827525557213     1.3864837864833996
29.72                     -0.15559937387299475     1.3496626255708328       -0.267812179605901       -0.2550092575467602      1.399407834708155
29.88                     -0.15555436271320397     1.354297868565261        -0.2667793921024142      -0.30763023983794113     1.414188928436965
30.040000000000003        -0.15550093219624664     1.358933111559673        -0.26574660459907307     -0.36025122212913097     1.4307695141408077
30.200000000000003        -0.15543908232212267     1.3635683545540842       -0.2647138170956751      -0.4128722044203279      1.4490878233169984
30.36                     -0.15536881309083214     1.3682035975484625       -0.2636810295922558      -0.4654931867115053      1.469078853086593
30.52                     -0.15529012450237498     1.3728388405428884       -0.26264824208889337     -0.5181141690026863      1.490675307804108
30.68                     -0.1546307934622782      1.8766509311633612       5.842661360978682        -4.3615404539518465      7.528714739447103
30.84                     -0.1548096910014586      4.0583823557906555       0.4060027770065382       1.071598706574072        4.217064072155076
31                        -0.15466701137635072     0.028282722463643495     0.7655578662122196       -2.027439286157619       2.1673460309707533
31.160000000000004        -0.15463734819828234     -0.7050661510267631      1.7599676039868974       0.7106442287720967       2.024751704356404
31.32                     -0.15465300098957935     2.168771178505139        0.6878673157103226       -0.4681568737340826      2.322907817189818
31.48                     -0.15457813399404813     2.1897932286776722       0.6782874697245909       -0.46768057040644495     2.339656682482212
31.64                     -0.1545033432070493      2.2108152788501485       0.6687076237389182       -0.4672042670788358      2.35651308301492
31.800000000000004        -0.15442862862858284     2.231837329022632        0.6591277777532336       -0.46672796375121933     2.373474727645557
31.96                     -0.15435399025864896     2.2528593791951295       0.6495479317675152       -0.46625166042361715     2.390539376153152
32.120000000000005        -0.15427942809724732     2.2738814293676555       0.6399680857818093       -0.4657753570959937      2.407704838413593
32.28                     -0.15420494214437822     2.2949034795401673       0.6303882397961607       -0.46529905376837033     2.4249689735575193
32.440000000000005        -0.15413053240004146     2.3159255297126506       0.6208083938104476       -0.4648227504407539      2.4423296891139894
32.6                      -0.15405619886423713     2.336947579885134        0.6112285478247332       -0.46434644711313044     2.4597849401428378
32.76                     -0.15398194153696532     2.357969630057653        0.601648701839026        -0.4638701437855143      2.477332728358143
32.919999999999995        -0.1539077604182258      2.378991680230172        0.5920688558533307       -0.4633938404578977      2.494971101245497
33.08                     -0.15383365550801872     2.4000137304026836       0.582489009867631        -0.46291753713028855     2.5126981511754947
33.239999999999995        -0.1537596268063441      2.4210357805752025       0.5729091638819668       -0.4624412338026651      2.530512014515293
33.4                      -0.15368567431320182     2.442057830747707        0.5633293178962542       -0.4619649304750416      2.54841087074013
33.559999999999995        -0.15361179802859212     2.4630798809201977       0.5537494719105114       -0.46148862714744304     2.566392941546843
33.72                     -0.1535379979525147      2.4841019310927024       0.5441696259248308       -0.46101232381981594     2.5844564899706493
33.879999999999995        -0.1534642740849697      2.5051239812652284       0.5345897799391235       -0.4605360204921961      2.602599819506698
34.04                     -0.15339062642595722     2.526146031437733        0.5250099339534495       -0.4600597171645939      2.6208212732378335
34.2                      -0.15331705497547707     2.5471680816102165       0.5154300879677018       -0.4595834138369668      2.639119232969648
34.36                     -0.15324355973352935     2.568190131782721        0.5058502419820647       -0.4591071105093487      2.657492118373958
34.519999999999996        -0.1531701407001141      2.5892121819552543       0.496270395996357        -0.45863080718173244     2.6759383861412127
34.68                     -0.15309679787523126     2.6102342321277305       0.4866905500106782       -0.4581545038541143      2.6944565291432983
34.84                     -0.1530235312588808      2.6312562823002423       0.4771107040249487       -0.45767820052649444     2.7130450756072677
35                        -0.15295034085106277     2.652278332472804        0.4675308580392876       -0.4572018971988847      2.731702588300185
35.16                     -0.1528772266517771      2.6733003826452233       0.45795101205355815      -0.45672559387126715     2.750427663725959
35.32                     -0.15280418866102394     2.694322432817785        0.44837116606785354      -0.4562492905436404      2.7692189313356517
35.480000000000004        -0.15273122687880317     2.7153444829902966       0.43879132008216537      -0.45577298721603254     2.78807505274896
35.64                     -0.15265834130511488     2.7363665331627516       0.42921147409645855      -0.45529668388839656     2.806994720990576
35.8                      -0.15258553193995888     2.757388583335299        0.41963162811077037      -0.4548203805608016      2.8259766597394633
35.96                     -0.15251279878333532     2.7784106335077965       0.41005178212507687      -0.45434407723317627     2.8450196225913826
36.120000000000005        -0.15244014183524426     2.799432683680294        0.40047193613939047      -0.45386777390553157     2.8641223923363763
36.28                     -0.15236756109568556     2.820454733852806        0.39089209015365745      -0.4533914705779543      2.8832837802495677
36.44                     -0.1522950565646593      2.8414767840253106       0.3813122441679311       -0.4529151672503201      2.9025026253963304
36.6                      -0.15222262824216545     2.8624988341978295       0.3717323981823042       -0.4524388639227075      2.921777793951821
36.760000000000005        -0.15213791937880042     1.0019388154348405       4.021408991770464        -0.5773617539242082      4.184370713005929
36.92                     -0.15204892803791065     1.0312804733123926       4.022825523440845        -0.535030007197733       4.187233181384164
37.080000000000005        -0.15196670977649712     1.0606221311899588       4.024242055111236        -0.4926982604713146      4.190727263753547
37.24                     -0.15189126459455987     1.0899637890674896       4.02565858678164         -0.45036651374482517     4.194851381814352
37.4                      -0.15182259249209878     1.1193054469450487       4.027075118452039        -0.40803476701836416     4.199603679433584
37.56                     -0.15176069346911403     1.148647104822615        4.028491650122433        -0.3657030202919245      4.204982026783727